
                                 *****************
                                 * O   R   C   A *
                                 *****************

                                            #,                                       
                                            ###                                      
                                            ####                                     
                                            #####                                    
                                            ######                                   
                                           ########,                                 
                                     ,,################,,,,,                         
                               ,,#################################,,                 
                          ,,##########################################,,             
                       ,#########################################, ''#####,          
                    ,#############################################,,   '####,        
                  ,##################################################,,,,####,       
                ,###########''''           ''''###############################       
              ,#####''   ,,,,##########,,,,          '''####'''          '####       
            ,##' ,,,,###########################,,,                        '##       
           ' ,,###''''                  '''############,,,                           
         ,,##''                                '''############,,,,        ,,,,,,###''
      ,#''                                            '''#######################'''  
     '                                                          ''''####''''         
             ,#######,   #######,   ,#######,      ##                                
            ,#'     '#,  ##    ##  ,#'     '#,    #''#        ######   ,####,        
            ##       ##  ##   ,#'  ##            #'  '#       #        #'  '#        
            ##       ##  #######   ##           ,######,      #####,   #    #        
            '#,     ,#'  ##    ##  '#,     ,#' ,#      #,         ##   #,  ,#        
             '#######'   ##     ##  '#######'  #'      '#     #####' # '####'        



                  #######################################################
                  #                        -***-                        #
                  #          Department of theory and spectroscopy      #
                  #    Directorship and core code : Frank Neese         #
                  #        Max Planck Institute fuer Kohlenforschung    #
                  #                Kaiser Wilhelm Platz 1               #
                  #                 D-45470 Muelheim/Ruhr               #
                  #                      Germany                        #
                  #                                                     #
                  #                  All rights reserved                #
                  #                        -***-                        #
                  #######################################################


                         Program Version 5.0.4 -  RELEASE  -


 With contributions from (in alphabetic order):
   Daniel Aravena         : Magnetic Suceptibility
   Michael Atanasov       : Ab Initio Ligand Field Theory (pilot matlab implementation)
   Alexander A. Auer      : GIAO ZORA, VPT2 properties, NMR spectrum
   Ute Becker             : Parallelization
   Giovanni Bistoni       : ED, misc. LED, open-shell LED, HFLD
   Martin Brehm           : Molecular dynamics
   Dmytro Bykov           : SCF Hessian
   Vijay G. Chilkuri      : MRCI spin determinant printing, contributions to CSF-ICE
   Dipayan Datta          : RHF DLPNO-CCSD density
   Achintya Kumar Dutta   : EOM-CC, STEOM-CC
   Dmitry Ganyushin       : Spin-Orbit,Spin-Spin,Magnetic field MRCI
   Miquel Garcia          : C-PCM and meta-GGA Hessian, CC/C-PCM, Gaussian charge scheme
   Yang Guo               : DLPNO-NEVPT2, F12-NEVPT2, CIM, IAO-localization
   Andreas Hansen         : Spin unrestricted coupled pair/coupled cluster methods
   Benjamin Helmich-Paris : MC-RPA, TRAH-SCF, COSX integrals
   Lee Huntington         : MR-EOM, pCC
   Robert Izsak           : Overlap fitted RIJCOSX, COSX-SCS-MP3, EOM
   Marcus Kettner         : VPT2
   Christian Kollmar      : KDIIS, OOCD, Brueckner-CCSD(T), CCSD density, CASPT2, CASPT2-K
   Simone Kossmann        : Meta GGA functionals, TD-DFT gradient, OOMP2, MP2 Hessian
   Martin Krupicka        : Initial AUTO-CI
   Lucas Lang             : DCDCAS
   Marvin Lechner         : AUTO-CI (C++ implementation), FIC-MRCC
   Dagmar Lenk            : GEPOL surface, SMD
   Dimitrios Liakos       : Extrapolation schemes; Compound Job, initial MDCI parallelization
   Dimitrios Manganas     : Further ROCIS development; embedding schemes
   Dimitrios Pantazis     : SARC Basis sets
   Anastasios Papadopoulos: AUTO-CI, single reference methods and gradients
   Taras Petrenko         : DFT Hessian,TD-DFT gradient, ASA, ECA, R-Raman, ABS, FL, XAS/XES, NRVS
   Peter Pinski           : DLPNO-MP2, DLPNO-MP2 Gradient
   Christoph Reimann      : Effective Core Potentials
   Marius Retegan         : Local ZFS, SOC
   Christoph Riplinger    : Optimizer, TS searches, QM/MM, DLPNO-CCSD(T), (RO)-DLPNO pert. Triples
   Tobias Risthaus        : Range-separated hybrids, TD-DFT gradient, RPA, STAB
   Michael Roemelt        : Original ROCIS implementation
   Masaaki Saitow         : Open-shell DLPNO-CCSD energy and density
   Barbara Sandhoefer     : DKH picture change effects
   Avijit Sen             : IP-ROCIS
   Kantharuban Sivalingam : CASSCF convergence, NEVPT2, FIC-MRCI
   Bernardo de Souza      : ESD, SOC TD-DFT
   Georgi Stoychev        : AutoAux, RI-MP2 NMR, DLPNO-MP2 response
   Willem Van den Heuvel  : Paramagnetic NMR
   Boris Wezisla          : Elementary symmetry handling
   Frank Wennmohs         : Technical directorship


 We gratefully acknowledge several colleagues who have allowed us to
 interface, adapt or use parts of their codes:
   Stefan Grimme, W. Hujo, H. Kruse, P. Pracht,  : VdW corrections, initial TS optimization,
                  C. Bannwarth, S. Ehlert          DFT functionals, gCP, sTDA/sTD-DF
   Ed Valeev, F. Pavosevic, A. Kumar             : LibInt (2-el integral package), F12 methods
   Garnet Chan, S. Sharma, J. Yang, R. Olivares  : DMRG
   Ulf Ekstrom                                   : XCFun DFT Library
   Mihaly Kallay                                 : mrcc  (arbitrary order and MRCC methods)
   Jiri Pittner, Ondrej Demel                    : Mk-CCSD
   Frank Weinhold                                : gennbo (NPA and NBO analysis)
   Christopher J. Cramer and Donald G. Truhlar   : smd solvation model
   Lars Goerigk                                  : TD-DFT with DH, B97 family of functionals
   V. Asgeirsson, H. Jonsson                     : NEB implementation
   FAccTs GmbH                                   : IRC, NEB, NEB-TS, DLPNO-Multilevel, CI-OPT
                                                   MM, QMMM, 2- and 3-layer-ONIOM, Crystal-QMMM,
                                                   LR-CPCM, SF, NACMEs, symmetry and pop. for TD-DFT,
                                                   nearIR, NL-DFT gradient (VV10), updates on ESD,
                                                   ML-optimized integration grids
   S Lehtola, MJT Oliveira, MAL Marques          : LibXC Library
   Liviu Ungur et al                             : ANISO software


 Your calculation uses the libint2 library for the computation of 2-el integrals
 For citations please refer to: http://libint.valeyev.net

 Your ORCA version has been built with support for libXC version: 5.1.0
 For citations please refer to: https://tddft.org/programs/libxc/

 This ORCA versions uses:
   CBLAS   interface :  Fast vector & matrix operations
   LAPACKE interface :  Fast linear algebra routines
   SCALAPACK package :  Parallel linear algebra routines
   Shared memory     :  Shared parallel matrices
   BLAS/LAPACK       :  OpenBLAS 0.3.15  USE64BITINT DYNAMIC_ARCH NO_AFFINITY SkylakeX SINGLE_THREADED
        Core in use  :  SkylakeX
   Copyright (c) 2011-2014, The OpenBLAS Project


================================================================================

----- Orbital basis set information -----
Your calculation utilizes the basis: aug-cc-pVDZ 
    H, B-Ne : Obtained from the ccRepo (grant-hill.group.shef.ac.uk/ccrepo) Feb. 2017
              R. A. Kendall, T. H. Dunning, Jr., R. J. Harrison, J. Chem. Phys. 96, 6796 (1992)
         He : Obtained from the ccRepo (grant-hill.group.shef.ac.uk/ccrepo) Feb. 2017
              D. E. Woon, T. H. Dunning, Jr., J. Chem. Phys. 100, 2975 (1994)
  Li-Be, Na : Obtained from the ccRepo (grant-hill.group.shef.ac.uk/ccrepo) Feb. 2017
              B. P. Prascher, D. E. Woon, K. A. Peterson, T. H. Dunning, Jr., A. K. Wilson, Theor. Chem. Acc. 128, 69 (2011)
         Mg : Obtained from the Peterson Research Group Website (tyr0.chem.wsu.edu/~kipeters) Feb. 2017
              B. P. Prascher, D. E. Woon, K. A. Peterson, T. H. Dunning, Jr., A. K. Wilson, Theor. Chem. Acc. 128, 69 (2011)
      Al-Ar : Obtained from the ccRepo (grant-hill.group.shef.ac.uk/ccrepo) Feb. 2017
              D. E. Woon, T. H. Dunning, Jr., J. Chem. Phys. 98, 1358 (1993)
      Sc-Zn : Obtained from the ccRepo (grant-hill.group.shef.ac.uk/ccrepo) Feb. 2017
              N. B. Balabanov, K. A. Peterson, J. Chem. Phys. 123, 064107 (2005)
              N. B. Balabanov, K. A. Peterson, J. Chem. Phys. 125, 074110 (2006)
      Ga-Kr : Obtained from the ccRepo (grant-hill.group.shef.ac.uk/ccrepo) Feb. 2017
              A. K. Wilson, D. E. Woon, K. A. Peterson, T. H. Dunning, Jr., J. Chem. Phys. 110, 7667 (1999)

================================================================================
                                        WARNINGS
                       Please study these warnings very carefully!
================================================================================


INFO   : the flag for use of the SHARK integral package has been found!

================================================================================
                                       INPUT FILE
================================================================================
NAME = HCl_efield_z_0.008.inp
|  1> ! hf aug-cc-pVDZ
|  2> ! MiniPrint VeryTightSCF
|  3> %pal
|  4>  nprocs 16
|  5> end
|  6> %MaxCore 2000
|  7> %scf
|  8>  maxiter=200
|  9>  efield 0.0 , 0.0 , 0.008
| 10> end
| 11> %elprop
| 12>   polar 1
| 13> end
| 14> * xyz 0 1
| 15> Cl                -5.59210558    0.14473684    0.00000000
| 16> H                 -6.88210558    0.14473684    0.00000000
| 17> *
| 18> 
| 19>                          ****END OF INPUT****
================================================================================

                       ****************************
                       * Single Point Calculation *
                       ****************************

---------------------------------
CARTESIAN COORDINATES (ANGSTROEM)
---------------------------------
  Cl    -5.592106    0.144737    0.000000
  H     -6.882106    0.144737    0.000000

----------------------------
CARTESIAN COORDINATES (A.U.)
----------------------------
  NO LB      ZA    FRAG     MASS         X           Y           Z
   0 Cl   17.0000    0    35.453  -10.567548    0.273513    0.000000
   1 H     1.0000    0     1.008  -13.005295    0.273513    0.000000



           ************************************************************
           *        Program running with 16 parallel MPI-processes    *
           *              working on a common directory               *
           ************************************************************
------------------------------------------------------------------------------
                   ___                                                        
                  /   \      - P O W E R E D   B Y -                         
                 /     \                                                     
                 |  |  |   _    _      __       _____    __    __             
                 |  |  |  | |  | |    /  \     |  _  \  |  |  /  |          
                  \  \/   | |  | |   /    \    | | | |  |  | /  /          
                 / \  \   | |__| |  /  /\  \   | |_| |  |  |/  /          
                |  |  |   |  __  | /  /__\  \  |    /   |      \           
                |  |  |   | |  | | |   __   |  |    \   |  |\   \          
                \     /   | |  | | |  |  |  |  | |\  \  |  | \   \       
                 \___/    |_|  |_| |__|  |__|  |_| \__\ |__|  \__/        
                                                                              
                      - O R C A' S   B I G   F R I E N D -                    
                                      &                                       
                       - I N T E G R A L  F E E D E R -                       
                                                                              
 v1 FN, 2020, v2 2021                                                         
------------------------------------------------------------------------------


Reading SHARK input file HCl_efield_z_0.008.SHARKINP.tmp ... ok
----------------------
SHARK INTEGRAL PACKAGE
----------------------

Number of atoms                             ...      2
Number of basis functions                   ...     59
Number of shells                            ...     29
Maximum angular momentum                    ...      2
Integral batch strategy                     ... SHARK/LIBINT Hybrid
RI-J (if used) integral strategy            ... SPLIT-RIJ (Revised 2003 algorithm where possible)
Printlevel                                  ...      1
Contraction scheme used                     ... PARTIAL GENERAL contraction
Coulomb Range Separation                    ... NOT USED
Exchange Range Separation                   ... NOT USED
Finite Nucleus Model                        ... NOT USED
Auxiliary Coulomb fitting basis             ... NOT available
Auxiliary J/K fitting basis                 ... NOT available
Auxiliary Correlation fitting basis         ... NOT available
Auxiliary 'external' fitting basis          ... NOT available
Integral threshold                          ...     1.000000e-12
Primitive cut-off                           ...     1.000000e-14
Primitive pair pre-selection threshold      ...     1.000000e-14

Calculating pre-screening integrals         ... done (  0.0 sec) Dimension = 29
Calculating pre-screening integrals (ORCA)  ... done (  0.1 sec) Dimension = 16
Organizing shell pair data                  ... done (  0.0 sec)
Shell pair information
Total number of shell pairs                 ...       435
Shell pairs after pre-screening             ...       435
Total number of primitive shell pairs       ...       499
Primitive shell pairs kept                  ...       488
          la=0 lb=0:    136 shell pairs
          la=1 lb=0:    176 shell pairs
          la=1 lb=1:     66 shell pairs
          la=2 lb=0:     32 shell pairs
          la=2 lb=1:     22 shell pairs
          la=2 lb=2:      3 shell pairs

Calculating one electron integrals          ... done (  0.0 sec)
Calculating Nuclear repulsion               ... done (  0.0 sec) ENN=      6.973653132636 Eh

SHARK setup successfully completed in   0.2 seconds

Maximum memory used throughout the entire GTOINT-calculation: 24.5 MB

An Electric Field will be added: 0.000e+00 0.000e+00 8.000e-03 au

  ... done adding electric field perturbation



           ************************************************************
           *        Program running with 16 parallel MPI-processes    *
           *              working on a common directory               *
           ************************************************************

Diagonalization of the overlap matrix:
Smallest eigenvalue                        ... 2.341e-03
Time for diagonalization                   ...    0.001 sec
Threshold for overlap eigenvalues          ... 1.000e-08
Number of eigenvalues below threshold      ... 0
Time for construction of square roots      ...    0.013 sec
Total time needed                          ...    0.054 sec

Time for model grid setup =    0.024 sec

Loading Hartree-Fock densities                     ... done
Calculating cut-offs                               ... done
Initializing the effective Hamiltonian             ... done
Setting up the integral package (SHARK)            ... done
Starting the Coulomb interaction                   ... done (   0.0 sec)
Reading the grid                                   ... done
Mapping shells                                     ... done
Starting the XC term evaluation                    ... done (   0.0 sec)
Transforming the Hamiltonian                       ... done (   0.0 sec)
Diagonalizing the Hamiltonian                      ... done (   0.0 sec)
Back transforming the eigenvectors                 ... done (   0.0 sec)
Now organizing SCF variables                       ... done
--------------
SCF ITERATIONS
--------------
ITER       Energy         Delta-E        Max-DP      RMS-DP      [F,P]     Damp
               ***  Starting incremental Fock matrix formation  ***
  0   -460.0767604471   0.000000000000 0.02531191  0.00211387  0.0909592 0.7000
  1   -460.0817837278  -0.005023280699 0.02015318  0.00159092  0.0653133 0.7000
                               ***Turning on DIIS***
  2   -460.0851984232  -0.003414695439 0.04590915  0.00359745  0.0442076 0.0000
  3   -460.0826156478   0.002582775426 0.01376102  0.00072175  0.0094211 0.0000
  4   -460.0900794661  -0.007463818300 0.00210382  0.00014791  0.0035377 0.0000
                      *** Initiating the SOSCF procedure ***
                           *** Shutting down DIIS ***
                      *** Re-Reading the Fockian *** 
                      *** Removing any level shift *** 
ITER      Energy       Delta-E        Grad      Rot      Max-DP    RMS-DP
  5   -460.09046127  -0.0003818032  0.000913  0.000913  0.000919  0.000083
               *** Restarting incremental Fock matrix formation ***
  6   -460.09298678  -0.0025255120  0.000226  0.000281  0.000388  0.000035
  7   -460.09298759  -0.0000008093  0.000112  0.000247  0.000301  0.000024
  8   -460.09298777  -0.0000001818  0.000018  0.000013  0.000042  0.000003
  9   -460.09298777  -0.0000000015  0.000003  0.000004  0.000007  0.000000
                  ***Gradient check signals convergence***
              ***Rediagonalizing the Fockian in SOSCF/NRSCF***

               *****************************************************
               *                     SUCCESS                       *
               *           SCF CONVERGED AFTER  10 CYCLES          *
               *****************************************************

Total Energy       :         -460.09298777 Eh          -12519.76669 eV
  Last Energy change         ...   -1.0664e-10  Tolerance :   1.0000e-09
  Last MAX-Density change    ...    1.1372e-06  Tolerance :   1.0000e-08
             **** THE GBW FILE WAS UPDATED (HCl_efield_z_0.008.gbw) ****
             **** DENSITY HCl_efield_z_0.008.scfp WAS UPDATED ****
             **** ENERGY FILE WAS UPDATED (HCl_efield_z_0.008.en.tmp) ****
             **** THE GBW FILE WAS UPDATED (HCl_efield_z_0.008.gbw) ****
             **** DENSITY HCl_efield_z_0.008.scfp WAS UPDATED ****
----------------
ORBITAL ENERGIES
----------------

  NO   OCC          E(Eh)            E(eV) 
   0   2.0000    -104.851920     -2853.1658 
   1   2.0000     -10.577374      -287.8250 
   2   2.0000      -8.045262      -218.9227 
   3   2.0000      -8.041783      -218.8280 
   4   2.0000      -8.041778      -218.8279 
   5   2.0000      -1.117137       -30.3988 
   6   2.0000      -0.623630       -16.9698 
   7   2.0000      -0.477249       -12.9866 
   8   2.0000      -0.477223       -12.9859 
   9   0.0000       0.031484         0.8567 
  10   0.0000       0.124689         3.3930 
  11   0.0000       0.138163         3.7596 
  12   0.0000       0.140702         3.8287 
  13   0.0000       0.178915         4.8685 
  14   0.0000       0.215706         5.8697 
  15   0.0000       0.318803         8.6751 
  16   0.0000       0.319021         8.6810 
  17   0.0000       0.471479        12.8296 
  18   0.0000       0.471479        12.8296 
  19   0.0000       0.491141        13.3646 
  20   0.0000       0.575335        15.6557 
  21   0.0000       0.607456        16.5297 
  22   0.0000       0.607472        16.5302 
  23   0.0000       0.892055        24.2741 
  24   0.0000       0.923281        25.1238 
  25   0.0000       0.923296        25.1242 
  26   0.0000       1.031734        28.0749 
  27   0.0000       1.385880        37.7117 
  28   0.0000       1.385882        37.7118 
  29   0.0000       1.386832        37.7376 
  30   0.0000       1.386856        37.7383 
  31   0.0000       1.447813        39.3970 
  32   0.0000       1.780522        48.4505 
  33   0.0000       1.854050        50.4513 
  34   0.0000       1.854094        50.4525 
  35   0.0000       2.413153        65.6652 
Total SCF time: 0 days 0 hours 0 min 1 sec 

Maximum memory used throughout the entire SCF-calculation: 224.6 MB

-------------------------   --------------------
FINAL SINGLE POINT ENERGY      -460.092987773977
-------------------------   --------------------


                            ***************************************
                            *     ORCA property calculations      *
                            ***************************************

                                    ---------------------
                                    Active property flags
                                    ---------------------
   (+) Dipole Moment
   (+) Polarizability


------------------------------------------------------------------------------
                       ORCA ELECTRIC PROPERTIES CALCULATION
------------------------------------------------------------------------------

Dipole Moment Calculation                       ... on
Quadrupole Moment Calculation                   ... off
Polarizability Calculation                      ... Analytic (CP-SCF)
GBWName                                         ... HCl_efield_z_0.008.gbw
Electron density                                ... HCl_efield_z_0.008.scfp
The origin for moment calculation is the CENTER OF MASS  = (-10.634942,  0.273513  0.000000)

-------------
DIPOLE MOMENT
-------------
                                X             Y             Z
Electronic contribution:      0.72970      -0.00000       0.11810
Nuclear contribution   :     -1.22466       0.00000       0.00000
                        -----------------------------------------
Total Dipole Moment    :     -0.49496      -0.00000       0.11810
                        -----------------------------------------
Magnitude (a.u.)       :      0.50885
Magnitude (Debye)      :      1.29340



--------------------
Rotational spectrum 
--------------------
 
Rotational constants in cm-1:     0.000000    10.335525    10.335525 
Rotational constants in MHz :     0.000000 309851.238400 309851.238400 

 Dipole components along the rotational axes: 
x,y,z [a.u.] :    -0.494957    -0.000000     0.118097 
x,y,z [Debye]:    -1.258082    -0.000000     0.300178 

 
Transforming and storing MO dipole integrals   ... done

                ... starting polarizability calculation

The origin for moment calculation is the CENTER OF MASS  = (-10.634942,  0.273513  0.000000)
Opening the Dipole integral file               ... (HCl_efield_z_0.008.dmo.tmp) done
Reading Dipole-MO integrals                    ... done
Solving CP-SCF equations                       ... 

           ************************************************************
           *        Program running with 16 parallel MPI-processes    *
           *              working on a common directory               *
           ************************************************************

------------------------------------------------------------------------------
                           ORCA CP-SCF CALCULATION
------------------------------------------------------------------------------

Input orbitals are from        ... HCl_efield_z_0.008.gbw
Input Perturbation             ... HCl_efield_z_0.008.cpv.tmp
Wavefunction output            ... HCl_efield_z_0.008.cpu.tmp
Perturbation mode              ... Real perturbation (singlet)
Solver                         ... POPLE
Max. number of iterations      ... 64
Convergence tolerance          ... 3.000e-05
Integral handling              ... Direct
Number of perturbations        ... 3
Number of operators            ... 1
Orbital ranges used for CP-SCF:
 Operator 0:  Orbitals   0...  8  to   9... 35
Variables per perturbation     ... 243
Memory available               ... 1998.6 MB
Memory needed per perturbation ...   0.0 MB
Perturbations treated per batch... 3
Number of batches              ... 1
     CP-SCF ITERATION   0:   5.3528e-01 (   0.0 sec   0/  3 done)
     CP-SCF ITERATION   1:   7.3278e-02 (   0.0 sec   0/  3 done)
     CP-SCF ITERATION   2:   1.9905e-02 (   0.0 sec   0/  3 done)
     CP-SCF ITERATION   3:   3.9370e-03 (   0.0 sec   0/  3 done)
     CP-SCF ITERATION   4:   1.0120e-03 (   0.0 sec   0/  3 done)
     CP-SCF ITERATION   5:   1.2765e-04 (   0.0 sec   0/  3 done)
     CP-SCF ITERATION   6:   3.5596e-05 (   0.0 sec   2/  3 done)
     CP-SCF ITERATION   7:   5.8132e-06 (   0.0 sec   3/  3 done)
                    *** THE CP-SCF HAS CONVERGED ***
done
Reading CP-SCF coefficients                    ... done
Doing the polarizability tensor                ... done
Cleaning up                                    ... done

-------------------------
THE POLARIZABILITY TENSOR
-------------------------

The raw cartesian tensor (atomic units):
   17.33683      0.00000     -0.01278  
    0.00000     14.76213     -0.00000  
   -0.01278     -0.00000     14.78624  
diagonalized tensor: 
   14.76213     14.78618     17.33689  

   -0.00000     -0.00501      0.99999  
   -1.00000      0.00000      0.00000  
   -0.00000     -0.99999     -0.00501  

Isotropic polarizability :  15.62840


Timings for individual modules:

Sum of individual times         ...        9.792 sec (=   0.163 min)
GTO integral calculation        ...        3.094 sec (=   0.052 min)  31.6 %
SCF iterations                  ...        3.791 sec (=   0.063 min)  38.7 %
Solution of CP-SCF eqns.        ...        2.908 sec (=   0.048 min)  29.7 %
                             ****ORCA TERMINATED NORMALLY****
TOTAL RUN TIME: 0 days 0 hours 0 minutes 13 seconds 101 msec
