 Entering Gaussian System, Link 0=g16
 Initial command:
 /scicomp/CentOS/7.4.1708/Skylake/software/Gaussian/g16/l1.exe "/scratch/pmilev/Gaussian/wb97x/orca_check/g16_1689541/Gau-39198.inp" -scrdir="/scratch/pmilev/Gaussian/wb97x/orca_check/g16_1689541/"
 Entering Link 1 = /scicomp/CentOS/7.4.1708/Skylake/software/Gaussian/g16/l1.exe PID=     39200.
  
 Copyright (c) 1988-2017, Gaussian, Inc.  All Rights Reserved.
  
 This is part of the Gaussian(R) 16 program.  It is based on
 the Gaussian(R) 09 system (copyright 2009, Gaussian, Inc.),
 the Gaussian(R) 03 system (copyright 2003, Gaussian, Inc.),
 the Gaussian(R) 98 system (copyright 1998, Gaussian, Inc.),
 the Gaussian(R) 94 system (copyright 1995, Gaussian, Inc.),
 the Gaussian 92(TM) system (copyright 1992, Gaussian, Inc.),
 the Gaussian 90(TM) system (copyright 1990, Gaussian, Inc.),
 the Gaussian 88(TM) system (copyright 1988, Gaussian, Inc.),
 the Gaussian 86(TM) system (copyright 1986, Carnegie Mellon
 University), and the Gaussian 82(TM) system (copyright 1983,
 Carnegie Mellon University). Gaussian is a federally registered
 trademark of Gaussian, Inc.
  
 This software contains proprietary and confidential information,
 including trade secrets, belonging to Gaussian, Inc.
  
 This software is provided under written license and may be
 used, copied, transmitted, or stored only in accord with that
 written license.
  
 The following legend is applicable only to US Government
 contracts under FAR:
  
                    RESTRICTED RIGHTS LEGEND
  
 Use, reproduction and disclosure by the US Government is
 subject to restrictions as set forth in subparagraphs (a)
 and (c) of the Commercial Computer Software - Restricted
 Rights clause in FAR 52.227-19.
  
 Gaussian, Inc.
 340 Quinnipiac St., Bldg. 40, Wallingford CT 06492
  
  
 ---------------------------------------------------------------
 Warning -- This program may not be used in any manner that
 competes with the business of Gaussian, Inc. or will provide
 assistance to any competitor of Gaussian, Inc.  The licensee
 of this program is prohibited from giving any competitor of
 Gaussian, Inc. access to this program.  By using this program,
 the user acknowledges that Gaussian, Inc. is engaged in the
 business of creating and licensing software in the field of
 computational chemistry and represents and warrants to the
 licensee that it is not a competitor of Gaussian, Inc. and that
 it will not use this program in any manner prohibited above.
 ---------------------------------------------------------------
  

 Cite this work as:
 Gaussian 16, Revision B.01,
 M. J. Frisch, G. W. Trucks, H. B. Schlegel, G. E. Scuseria, 
 M. A. Robb, J. R. Cheeseman, G. Scalmani, V. Barone, 
 G. A. Petersson, H. Nakatsuji, X. Li, M. Caricato, A. V. Marenich, 
 J. Bloino, B. G. Janesko, R. Gomperts, B. Mennucci, H. P. Hratchian, 
 J. V. Ortiz, A. F. Izmaylov, J. L. Sonnenberg, D. Williams-Young, 
 F. Ding, F. Lipparini, F. Egidi, J. Goings, B. Peng, A. Petrone, 
 T. Henderson, D. Ranasinghe, V. G. Zakrzewski, J. Gao, N. Rega, 
 G. Zheng, W. Liang, M. Hada, M. Ehara, K. Toyota, R. Fukuda, 
 J. Hasegawa, M. Ishida, T. Nakajima, Y. Honda, O. Kitao, H. Nakai, 
 T. Vreven, K. Throssell, J. A. Montgomery, Jr., J. E. Peralta, 
 F. Ogliaro, M. J. Bearpark, J. J. Heyd, E. N. Brothers, K. N. Kudin, 
 V. N. Staroverov, T. A. Keith, R. Kobayashi, J. Normand, 
 K. Raghavachari, A. P. Rendell, J. C. Burant, S. S. Iyengar, 
 J. Tomasi, M. Cossi, J. M. Millam, M. Klene, C. Adamo, R. Cammi, 
 J. W. Ochterski, R. L. Martin, K. Morokuma, O. Farkas, 
 J. B. Foresman, and D. J. Fox, Gaussian, Inc., Wallingford CT, 2016.
 
 ******************************************
 Gaussian 16:  ES64L-G16RevB.01 20-Dec-2017
                20-Jun-2024 
 ******************************************
 %nproc=2
 Will use up to    2 processors via shared memory.
 %mem=40Gb
 %chk=phenol.chk
 -------------------------------------------
 #P hf/aug-cc-pvdz IOp(3/59=10) nosymm polar
 -------------------------------------------
 1/38=1,172=1/1;
 2/12=2,15=1,17=6,18=5,40=1/2;
 3/5=16,7=10,11=9,25=1,30=1,59=10/1,2,3;
 4//1;
 5/5=2,38=5,98=1/2;
 8/6=4,10=90,11=11/1;
 10/6=1,13=10,31=1/2;
 6/7=2,8=2,9=2,10=2,28=1/1;
 99/5=1,9=1/99;
 Leave Link    1 at Thu Jun 20 08:40:54 2024, MaxMem=  5368709120 cpu:               0.0 elap:               0.0
 (Enter /scicomp/CentOS/7.4.1708/Skylake/software/Gaussian/g16/l101.exe)
 ----------------------------------------------------------------------
 Performing amonia check orca calculation and saving the results F=Z+1.
 dF dF=0.00001au
 ----------------------------------------------------------------------
 Symbolic Z-matrix:
 Charge =  0 Multiplicity = 1
 C                     0.26178   2.32984   0. 
 C                     1.65694   2.32984   0. 
 C                     2.35448   3.53759   0. 
 C                     1.65682   4.7461   -0.0012 
 C                     0.262     4.74602  -0.00168 
 C                    -0.4356    3.53782  -0.00068 
 H                    -0.28798   1.37753   0.00045 
 H                     2.20645   1.37733   0.00132 
 H                     3.45416   3.53767   0.00063 
 H                     2.20702   5.69825  -0.00126 
 H                    -0.28812   5.69831  -0.00263 
 O                    -1.8656    3.53806  -0.00092 
 H                    -2.1865    3.53625   0.90386 
 
 ITRead=  0  0  0  0  0  0  0  0  0  0  0  0  0
 MicOpt= -1 -1 -1 -1 -1 -1 -1 -1 -1 -1 -1 -1 -1
 NAtoms=     13 NQM=       13 NQMF=       0 NMMI=      0 NMMIF=      0
                NMic=       0 NMicF=      0.
                    Isotopes and Nuclear Properties:
 (Nuclear quadrupole moments (NQMom) in fm**2, nuclear magnetic moments (NMagM)
  in nuclear magnetons)

  Atom         1           2           3           4           5           6           7           8           9          10
 IAtWgt=          12          12          12          12          12          12           1           1           1           1
 AtmWgt=  12.0000000  12.0000000  12.0000000  12.0000000  12.0000000  12.0000000   1.0078250   1.0078250   1.0078250   1.0078250
 NucSpn=           0           0           0           0           0           0           1           1           1           1
 AtZEff=  -0.0000000  -0.0000000  -0.0000000  -0.0000000  -0.0000000  -0.0000000  -0.0000000  -0.0000000  -0.0000000  -0.0000000
 NQMom=    0.0000000   0.0000000   0.0000000   0.0000000   0.0000000   0.0000000   0.0000000   0.0000000   0.0000000   0.0000000
 NMagM=    0.0000000   0.0000000   0.0000000   0.0000000   0.0000000   0.0000000   2.7928460   2.7928460   2.7928460   2.7928460
 AtZNuc=   6.0000000   6.0000000   6.0000000   6.0000000   6.0000000   6.0000000   1.0000000   1.0000000   1.0000000   1.0000000

  Atom        11          12          13
 IAtWgt=           1          16           1
 AtmWgt=   1.0078250  15.9949146   1.0078250
 NucSpn=           1           0           1
 AtZEff=  -0.0000000  -0.0000000  -0.0000000
 NQMom=    0.0000000   0.0000000   0.0000000
 NMagM=    2.7928460   0.0000000   2.7928460
 AtZNuc=   1.0000000   8.0000000   1.0000000
 Leave Link  101 at Thu Jun 20 08:40:54 2024, MaxMem=  5368709120 cpu:               0.2 elap:               0.1
 (Enter /scicomp/CentOS/7.4.1708/Skylake/software/Gaussian/g16/l202.exe)
                          Input orientation:                          
 ---------------------------------------------------------------------
 Center     Atomic      Atomic             Coordinates (Angstroms)
 Number     Number       Type             X           Y           Z
 ---------------------------------------------------------------------
      1          6           0        0.261780    2.329843    0.000000
      2          6           0        1.656940    2.329843    0.000000
      3          6           0        2.354478    3.537594    0.000000
      4          6           0        1.656824    4.746103   -0.001199
      5          6           0        0.261999    4.746025   -0.001678
      6          6           0       -0.435602    3.537819   -0.000682
      7          1           0       -0.287979    1.377526    0.000450
      8          1           0        2.206448    1.377330    0.001315
      9          1           0        3.454158    3.537674    0.000634
     10          1           0        2.207024    5.698246   -0.001258
     11          1           0       -0.288123    5.698306   -0.002631
     12          8           0       -1.865602    3.538057   -0.000916
     13          1           0       -2.186505    3.536250    0.903859
 ---------------------------------------------------------------------
                    Distance matrix (angstroms):
                    1          2          3          4          5
     1  C    0.000000
     2  C    1.395160   0.000000
     3  C    2.416205   1.394712   0.000000
     4  C    2.790065   2.416260   1.395427   0.000000
     5  C    2.416183   2.789946   2.416356   1.394825   0.000000
     6  C    1.394829   2.416183   2.790080   2.416236   1.395138
     7  H    1.099610   2.165553   3.412986   3.889675   3.413102
     8  H    2.165414   1.099655   2.165330   3.413316   3.889601
     9  H    3.413229   2.165375   1.099680   2.165806   3.413209
    10  H    3.889745   3.413024   2.165678   1.099680   2.165606
    11  H    3.413055   3.889707   3.413506   2.165528   1.099761
    12  O    2.446535   3.723988   4.220080   3.723823   2.446604
    13  H    2.875149   4.128492   4.630064   4.129655   2.877277
                    6          7          8          9         10
     6  C    0.000000
     7  H    2.165331   0.000000
     8  H    3.412938   2.494427   0.000000
     9  H    3.889760   4.320860   2.494768   0.000000
    10  H    3.413344   4.989355   4.320917   2.494678   0.000000
    11  H    2.165516   4.320781   4.989362   4.321228   2.495147
    12  O    1.430000   2.675218   4.609809   5.319760   4.610065
    13  H    1.970751   3.013410   4.977304   5.712521   4.979614
                   11         12         13
    11  H    0.000000
    12  O    2.674905   0.000000
    13  H    3.016631   0.960000   0.000000
 Symmetry turned off by external request.
 Stoichiometry    C6H6O
 Framework group  C1[X(C6H6O)]
 Deg. of freedom    33
 Full point group                 C1      NOp   1
 Rotational constants (GHZ):           5.6366121           2.5434565           1.7622266
 Leave Link  202 at Thu Jun 20 08:40:54 2024, MaxMem=  5368709120 cpu:               0.0 elap:               0.0
 (Enter /scicomp/CentOS/7.4.1708/Skylake/software/Gaussian/g16/l301.exe)
 Standard basis: Aug-CC-pVDZ (5D, 7F)
 Ernie: Thresh=  0.10000D-02 Tol=  0.10000D-05 Strict=F.
 Ernie:  14 primitive shells out of 217 were deleted.
   215 basis functions,   367 primitive gaussians,   229 cartesian basis functions
    25 alpha electrons       25 beta electrons
       nuclear repulsion energy       268.8524370004 Hartrees.
 IExCor=    0 DFT=F Ex=HF Corr=None ExCW=0 ScaHFX=  1.000000
 ScaDFX=  1.000000  1.000000  1.000000  1.000000 ScalE2=  1.000000  1.000000
 IRadAn=      5 IRanWt=     -1 IRanGd=            0 ICorTp=0 IEmpDi=  4
 NAtoms=   13 NActive=   13 NUniq=   13 SFac= 1.00D+00 NAtFMM=   60 NAOKFM=F Big=F
 Integral buffers will be    131072 words long.
 Raffenetti 1 integral format.
 Two-electron integral symmetry is turned off.
 Leave Link  301 at Thu Jun 20 08:40:54 2024, MaxMem=  5368709120 cpu:               0.1 elap:               0.1
 (Enter /scicomp/CentOS/7.4.1708/Skylake/software/Gaussian/g16/l302.exe)
 NPDir=0 NMtPBC=     1 NCelOv=     1 NCel=       1 NClECP=     1 NCelD=      1
         NCelK=      1 NCelE2=     1 NClLst=     1 CellRange=     0.0.
 One-electron integrals computed using PRISM.
 NBasis=   215 RedAO= T EigKep=  2.60D-06  NBF=   215
 NBsUse=   215 1.00D-10 EigRej= -1.00D+00 NBFU=   215
 Leave Link  302 at Thu Jun 20 08:40:54 2024, MaxMem=  5368709120 cpu:               0.2 elap:               0.1
 (Enter /scicomp/CentOS/7.4.1708/Skylake/software/Gaussian/g16/l303.exe)
 DipDrv:  MaxL=1.
 Leave Link  303 at Thu Jun 20 08:40:55 2024, MaxMem=  5368709120 cpu:               0.1 elap:               0.1
 (Enter /scicomp/CentOS/7.4.1708/Skylake/software/Gaussian/g16/l401.exe)
 ExpMin= 2.97D-02 ExpMax= 1.17D+04 ExpMxC= 4.01D+02 IAcc=3 IRadAn=         5 AccDes= 0.00D+00
 Harris functional with IExCor=  205 and IRadAn=       5 diagonalized for initial guess.
 HarFok:  IExCor=  205 AccDes= 0.00D+00 IRadAn=         5 IDoV= 1 UseB2=F ITyADJ=14
 ICtDFT=  3500011 ScaDFX=  1.000000  1.000000  1.000000  1.000000
 FoFCou: FMM=F IPFlag=           0 FMFlag=      100000 FMFlg1=           0
         NFxFlg=           0 DoJE=T BraDBF=F KetDBF=T FulRan=T
         wScrn=  0.000000 ICntrl=       500 IOpCl=  0 I1Cent=   200000004 NGrid=           0
         NMat0=    1 NMatS0=      1 NMatT0=    0 NMatD0=    1 NMtDS0=    0 NMtDT0=    0
 Symmetry not used in FoFCou.
 Harris En= -305.961913939517    
 JPrj=0 DoOrth=F DoCkMO=F.
 Leave Link  401 at Thu Jun 20 08:40:56 2024, MaxMem=  5368709120 cpu:               1.8 elap:               0.9
 (Enter /scicomp/CentOS/7.4.1708/Skylake/software/Gaussian/g16/l502.exe)
 Keep R1 ints in memory in canonical form, NReq=275679874.
 FoFCou: FMM=F IPFlag=           0 FMFlag=           0 FMFlg1=           0
         NFxFlg=           0 DoJE=F BraDBF=F KetDBF=F FulRan=T
         wScrn=  0.000000 ICntrl=       600 IOpCl=  0 I1Cent=           0 NGrid=           0
         NMat0=    1 NMatS0=  23220 NMatT0=    0 NMatD0=    1 NMtDS0=    0 NMtDT0=    0
 Symmetry not used in FoFCou.
 Two-electron integral symmetry not used.
 Closed shell SCF:
 Using DIIS extrapolation, IDIIS=  1040.
 NGot=  5368709120 LenX=  5099005366 LenY=  5098952484
 Requested convergence on RMS density matrix=1.00D-08 within 128 cycles.
 Requested convergence on MAX density matrix=1.00D-06.
 Requested convergence on             energy=1.00D-06.
 No special actions if energy rises.

 Cycle   1  Pass 1  IDiag  1:
 E= -305.325783325969    
 DIIS: error= 4.04D-02 at cycle   1 NSaved=   1.
 NSaved= 1 IEnMin= 1 EnMin= -305.325783325969     IErMin= 1 ErrMin= 4.04D-02
 ErrMax= 4.04D-02  0.00D+00 EMaxC= 1.00D-01 BMatC= 3.23D-01 BMatP= 3.23D-01
 IDIUse=3 WtCom= 5.96D-01 WtEn= 4.04D-01
 Coeff-Com:  0.100D+01
 Coeff-En:   0.100D+01
 Coeff:      0.100D+01
 Gap=     0.480 Goal=   None    Shift=    0.000
 GapD=    0.480 DampG=2.000 DampE=0.500 DampFc=1.0000 IDamp=-1.
 RMSDP=5.84D-02 MaxDP=1.82D+00              OVMax= 1.50D-01

 Cycle   2  Pass 1  IDiag  1:
 E= -305.549442000452     Delta-E=       -0.223658674483 Rises=F Damp=F
 DIIS: error= 2.02D-02 at cycle   2 NSaved=   2.
 NSaved= 2 IEnMin= 2 EnMin= -305.549442000452     IErMin= 2 ErrMin= 2.02D-02
 ErrMax= 2.02D-02  0.00D+00 EMaxC= 1.00D-01 BMatC= 4.59D-02 BMatP= 3.23D-01
 IDIUse=3 WtCom= 7.98D-01 WtEn= 2.02D-01
 Coeff-Com:  0.222D+00 0.778D+00
 Coeff-En:   0.000D+00 0.100D+01
 Coeff:      0.177D+00 0.823D+00
 Gap=     0.393 Goal=   None    Shift=    0.000
 RMSDP=3.92D-03 MaxDP=6.66D-02 DE=-2.24D-01 OVMax= 5.39D-02

 Cycle   3  Pass 1  IDiag  1:
 E= -305.590802405319     Delta-E=       -0.041360404867 Rises=F Damp=F
 DIIS: error= 3.81D-03 at cycle   3 NSaved=   3.
 NSaved= 3 IEnMin= 3 EnMin= -305.590802405319     IErMin= 3 ErrMin= 3.81D-03
 ErrMax= 3.81D-03  0.00D+00 EMaxC= 1.00D-01 BMatC= 3.13D-03 BMatP= 4.59D-02
 IDIUse=3 WtCom= 9.62D-01 WtEn= 3.81D-02
 Coeff-Com: -0.243D-01 0.162D+00 0.862D+00
 Coeff-En:   0.000D+00 0.000D+00 0.100D+01
 Coeff:     -0.234D-01 0.156D+00 0.867D+00
 Gap=     0.371 Goal=   None    Shift=    0.000
 RMSDP=1.94D-03 MaxDP=6.28D-02 DE=-4.14D-02 OVMax= 1.49D-02

 Cycle   4  Pass 1  IDiag  1:
 E= -305.593847065838     Delta-E=       -0.003044660518 Rises=F Damp=F
 DIIS: error= 6.96D-04 at cycle   4 NSaved=   4.
 NSaved= 4 IEnMin= 4 EnMin= -305.593847065838     IErMin= 4 ErrMin= 6.96D-04
 ErrMax= 6.96D-04  0.00D+00 EMaxC= 1.00D-01 BMatC= 9.00D-05 BMatP= 3.13D-03
 IDIUse=3 WtCom= 9.93D-01 WtEn= 6.96D-03
 Coeff-Com: -0.808D-02 0.888D-02 0.144D+00 0.855D+00
 Coeff-En:   0.000D+00 0.000D+00 0.000D+00 0.100D+01
 Coeff:     -0.803D-02 0.882D-02 0.143D+00 0.856D+00
 Gap=     0.369 Goal=   None    Shift=    0.000
 RMSDP=2.57D-04 MaxDP=8.14D-03 DE=-3.04D-03 OVMax= 4.37D-03

 Cycle   5  Pass 1  IDiag  1:
 E= -305.593950815261     Delta-E=       -0.000103749423 Rises=F Damp=F
 DIIS: error= 2.91D-04 at cycle   5 NSaved=   5.
 NSaved= 5 IEnMin= 5 EnMin= -305.593950815261     IErMin= 5 ErrMin= 2.91D-04
 ErrMax= 2.91D-04  0.00D+00 EMaxC= 1.00D-01 BMatC= 1.51D-05 BMatP= 9.00D-05
 IDIUse=3 WtCom= 9.97D-01 WtEn= 2.91D-03
 Coeff-Com:  0.389D-03-0.154D-01-0.561D-01 0.225D+00 0.846D+00
 Coeff-En:   0.000D+00 0.000D+00 0.000D+00 0.000D+00 0.100D+01
 Coeff:      0.388D-03-0.153D-01-0.559D-01 0.225D+00 0.846D+00
 Gap=     0.369 Goal=   None    Shift=    0.000
 RMSDP=7.97D-05 MaxDP=2.00D-03 DE=-1.04D-04 OVMax= 2.19D-03

 Cycle   6  Pass 1  IDiag  1:
 E= -305.593972620594     Delta-E=       -0.000021805334 Rises=F Damp=F
 DIIS: error= 7.14D-05 at cycle   6 NSaved=   6.
 NSaved= 6 IEnMin= 6 EnMin= -305.593972620594     IErMin= 6 ErrMin= 7.14D-05
 ErrMax= 7.14D-05  0.00D+00 EMaxC= 1.00D-01 BMatC= 8.02D-07 BMatP= 1.51D-05
 IDIUse=1 WtCom= 1.00D+00 WtEn= 0.00D+00
 Coeff-Com:  0.708D-03-0.228D-02-0.156D-01-0.720D-01 0.396D-01 0.105D+01
 Coeff:      0.708D-03-0.228D-02-0.156D-01-0.720D-01 0.396D-01 0.105D+01
 Gap=     0.369 Goal=   None    Shift=    0.000
 RMSDP=3.31D-05 MaxDP=1.14D-03 DE=-2.18D-05 OVMax= 4.28D-04

 Cycle   7  Pass 1  IDiag  1:
 E= -305.593974404948     Delta-E=       -0.000001784354 Rises=F Damp=F
 DIIS: error= 2.58D-05 at cycle   7 NSaved=   7.
 NSaved= 7 IEnMin= 7 EnMin= -305.593974404948     IErMin= 7 ErrMin= 2.58D-05
 ErrMax= 2.58D-05  0.00D+00 EMaxC= 1.00D-01 BMatC= 5.47D-08 BMatP= 8.02D-07
 IDIUse=1 WtCom= 1.00D+00 WtEn= 0.00D+00
 Coeff-Com: -0.156D-03 0.833D-03 0.551D-02 0.867D-02-0.308D-01-0.263D+00
 Coeff-Com:  0.128D+01
 Coeff:     -0.156D-03 0.833D-03 0.551D-02 0.867D-02-0.308D-01-0.263D+00
 Coeff:      0.128D+01
 Gap=     0.369 Goal=   None    Shift=    0.000
 RMSDP=9.60D-06 MaxDP=2.87D-04 DE=-1.78D-06 OVMax= 3.65D-04

 Cycle   8  Pass 1  IDiag  1:
 E= -305.593974689574     Delta-E=       -0.000000284626 Rises=F Damp=F
 DIIS: error= 1.51D-05 at cycle   8 NSaved=   8.
 NSaved= 8 IEnMin= 8 EnMin= -305.593974689574     IErMin= 8 ErrMin= 1.51D-05
 ErrMax= 1.51D-05  0.00D+00 EMaxC= 1.00D-01 BMatC= 2.20D-08 BMatP= 5.47D-08
 IDIUse=1 WtCom= 1.00D+00 WtEn= 0.00D+00
 Coeff-Com: -0.166D-03 0.514D-03 0.388D-02 0.179D-01-0.868D-02-0.280D+00
 Coeff-Com:  0.202D+00 0.106D+01
 Coeff:     -0.166D-03 0.514D-03 0.388D-02 0.179D-01-0.868D-02-0.280D+00
 Coeff:      0.202D+00 0.106D+01
 Gap=     0.369 Goal=   None    Shift=    0.000
 RMSDP=5.93D-06 MaxDP=1.90D-04 DE=-2.85D-07 OVMax= 1.89D-04

 Cycle   9  Pass 1  IDiag  1:
 E= -305.593974773773     Delta-E=       -0.000000084199 Rises=F Damp=F
 DIIS: error= 7.62D-06 at cycle   9 NSaved=   9.
 NSaved= 9 IEnMin= 9 EnMin= -305.593974773773     IErMin= 9 ErrMin= 7.62D-06
 ErrMax= 7.62D-06  0.00D+00 EMaxC= 1.00D-01 BMatC= 3.03D-09 BMatP= 2.20D-08
 IDIUse=1 WtCom= 1.00D+00 WtEn= 0.00D+00
 Coeff-Com:  0.348D-04-0.206D-03-0.127D-02-0.155D-02 0.664D-02 0.607D-01
 Coeff-Com: -0.172D+00-0.358D+00 0.147D+01
 Coeff:      0.348D-04-0.206D-03-0.127D-02-0.155D-02 0.664D-02 0.607D-01
 Coeff:     -0.172D+00-0.358D+00 0.147D+01
 Gap=     0.369 Goal=   None    Shift=    0.000
 RMSDP=3.80D-06 MaxDP=1.21D-04 DE=-8.42D-08 OVMax= 1.13D-04

 Cycle  10  Pass 1  IDiag  1:
 E= -305.593974793726     Delta-E=       -0.000000019953 Rises=F Damp=F
 DIIS: error= 2.45D-06 at cycle  10 NSaved=  10.
 NSaved=10 IEnMin=10 EnMin= -305.593974793726     IErMin=10 ErrMin= 2.45D-06
 ErrMax= 2.45D-06  0.00D+00 EMaxC= 1.00D-01 BMatC= 4.88D-10 BMatP= 3.03D-09
 IDIUse=1 WtCom= 1.00D+00 WtEn= 0.00D+00
 Coeff-Com:  0.227D-04-0.724D-04-0.536D-03-0.221D-02 0.142D-03 0.382D-01
 Coeff-Com:  0.398D-02-0.230D+00 0.774D-01 0.111D+01
 Coeff:      0.227D-04-0.724D-04-0.536D-03-0.221D-02 0.142D-03 0.382D-01
 Coeff:      0.398D-02-0.230D+00 0.774D-01 0.111D+01
 Gap=     0.369 Goal=   None    Shift=    0.000
 RMSDP=1.05D-06 MaxDP=3.34D-05 DE=-2.00D-08 OVMax= 3.46D-05

 Cycle  11  Pass 1  IDiag  1:
 E= -305.593974795753     Delta-E=       -0.000000002027 Rises=F Damp=F
 DIIS: error= 6.00D-07 at cycle  11 NSaved=  11.
 NSaved=11 IEnMin=11 EnMin= -305.593974795753     IErMin=11 ErrMin= 6.00D-07
 ErrMax= 6.00D-07  0.00D+00 EMaxC= 1.00D-01 BMatC= 7.67D-11 BMatP= 4.88D-10
 IDIUse=1 WtCom= 1.00D+00 WtEn= 0.00D+00
 Coeff-Com: -0.834D-06 0.168D-04 0.101D-03-0.274D-05-0.129D-02-0.303D-02
 Coeff-Com:  0.324D-01-0.410D-02-0.217D+00 0.219D+00 0.974D+00
 Coeff:     -0.834D-06 0.168D-04 0.101D-03-0.274D-05-0.129D-02-0.303D-02
 Coeff:      0.324D-01-0.410D-02-0.217D+00 0.219D+00 0.974D+00
 Gap=     0.369 Goal=   None    Shift=    0.000
 RMSDP=4.50D-07 MaxDP=1.20D-05 DE=-2.03D-09 OVMax= 1.17D-05

 Cycle  12  Pass 1  IDiag  1:
 E= -305.593974795987     Delta-E=       -0.000000000235 Rises=F Damp=F
 DIIS: error= 1.45D-07 at cycle  12 NSaved=  12.
 NSaved=12 IEnMin=12 EnMin= -305.593974795987     IErMin=12 ErrMin= 1.45D-07
 ErrMax= 1.45D-07  0.00D+00 EMaxC= 1.00D-01 BMatC= 3.47D-12 BMatP= 7.67D-11
 IDIUse=1 WtCom= 1.00D+00 WtEn= 0.00D+00
 Coeff-Com: -0.236D-05 0.823D-05 0.590D-04 0.240D-03-0.119D-03-0.406D-02
 Coeff-Com:  0.125D-02 0.215D-01-0.346D-02-0.117D+00-0.365D-01 0.114D+01
 Coeff:     -0.236D-05 0.823D-05 0.590D-04 0.240D-03-0.119D-03-0.406D-02
 Coeff:      0.125D-02 0.215D-01-0.346D-02-0.117D+00-0.365D-01 0.114D+01
 Gap=     0.369 Goal=   None    Shift=    0.000
 RMSDP=1.18D-07 MaxDP=3.10D-06 DE=-2.35D-10 OVMax= 2.38D-06

 Cycle  13  Pass 1  IDiag  1:
 E= -305.593974795999     Delta-E=       -0.000000000012 Rises=F Damp=F
 DIIS: error= 2.83D-08 at cycle  13 NSaved=  13.
 NSaved=13 IEnMin=13 EnMin= -305.593974795999     IErMin=13 ErrMin= 2.83D-08
 ErrMax= 2.83D-08  0.00D+00 EMaxC= 1.00D-01 BMatC= 2.39D-13 BMatP= 3.47D-12
 IDIUse=1 WtCom= 1.00D+00 WtEn= 0.00D+00
 Coeff-Com: -0.183D-06-0.893D-07 0.543D-07 0.291D-04 0.416D-04-0.219D-03
 Coeff-Com: -0.156D-02 0.200D-02 0.115D-01-0.208D-01-0.541D-01 0.135D+00
 Coeff-Com:  0.928D+00
 Coeff:     -0.183D-06-0.893D-07 0.543D-07 0.291D-04 0.416D-04-0.219D-03
 Coeff:     -0.156D-02 0.200D-02 0.115D-01-0.208D-01-0.541D-01 0.135D+00
 Coeff:      0.928D+00
 Gap=     0.369 Goal=   None    Shift=    0.000
 RMSDP=1.48D-08 MaxDP=3.01D-07 DE=-1.16D-11 OVMax= 2.53D-07

 Cycle  14  Pass 1  IDiag  1:
 E= -305.593974796000     Delta-E=       -0.000000000001 Rises=F Damp=F
 DIIS: error= 1.21D-08 at cycle  14 NSaved=  14.
 NSaved=14 IEnMin=14 EnMin= -305.593974796000     IErMin=14 ErrMin= 1.21D-08
 ErrMax= 1.21D-08  0.00D+00 EMaxC= 1.00D-01 BMatC= 3.54D-14 BMatP= 2.39D-13
 IDIUse=1 WtCom= 1.00D+00 WtEn= 0.00D+00
 Coeff-Com:  0.292D-06-0.109D-05-0.816D-05-0.297D-04 0.141D-04 0.558D-03
 Coeff-Com: -0.327D-03-0.270D-02 0.110D-02 0.141D-01-0.211D-02-0.148D+00
 Coeff-Com:  0.118D+00 0.102D+01
 Coeff:      0.292D-06-0.109D-05-0.816D-05-0.297D-04 0.141D-04 0.558D-03
 Coeff:     -0.327D-03-0.270D-02 0.110D-02 0.141D-01-0.211D-02-0.148D+00
 Coeff:      0.118D+00 0.102D+01
 Gap=     0.369 Goal=   None    Shift=    0.000
 RMSDP=6.06D-09 MaxDP=1.21D-07 DE=-1.25D-12 OVMax= 1.22D-07

 SCF Done:  E(RHF) =  -305.593974796     A.U. after   14 cycles
            NFock= 14  Conv=0.61D-08     -V/T= 2.0018
 KE= 3.050570045752D+02 PE=-1.252125970980D+03 EE= 3.726225546083D+02
 Leave Link  502 at Thu Jun 20 08:41:06 2024, MaxMem=  5368709120 cpu:              15.8 elap:              10.1
 (Enter /scicomp/CentOS/7.4.1708/Skylake/software/Gaussian/g16/l801.exe)
 Range of M.O.s used for correlation:     1   215
 NBasis=   215 NAE=    25 NBE=    25 NFC=     0 NFV=     0
 NROrb=    215 NOA=    25 NOB=    25 NVA=   190 NVB=   190

 **** Warning!!: The largest alpha MO coefficient is  0.14169148D+03

 Leave Link  801 at Thu Jun 20 08:41:06 2024, MaxMem=  5368709120 cpu:               0.1 elap:               0.1
 (Enter /scicomp/CentOS/7.4.1708/Skylake/software/Gaussian/g16/l1002.exe)
 Minotr:  Closed shell wavefunction.
          Direct CPHF calculation.
          Differentiating once with respect to electric field.
                with respect to dipole field.
          Electric field/nuclear overlap derivatives assumed to be zero.
          Requested convergence is 1.0D-08 RMS, and 1.0D-07 maximum.
          Secondary convergence is 1.0D-12 RMS, and 1.0D-12 maximum.
          NewPWx=F KeepS1=T KeepF1=T KeepIn=T MapXYZ=F SortEE=F KeepMc=T.
 Keep R1 ints in memory in canonical form, NReq=275681516.
 FoFCou: FMM=F IPFlag=           0 FMFlag=           0 FMFlg1=           0
         NFxFlg=           0 DoJE=F BraDBF=F KetDBF=F FulRan=T
         wScrn=  0.000000 ICntrl=       600 IOpCl=  0 I1Cent=           0 NGrid=           0
         NMat0=    1 NMatS0=  23220 NMatT0=    0 NMatD0=    1 NMtDS0=    0 NMtDT0=    0
 Symmetry not used in FoFCou.
 Two-electron integral symmetry not used.
          MDV=    5368709120 using IRadAn=       1.
          Solving linear equations simultaneously, MaxMat=       0.
          There are     3 degrees of freedom in the 1st order CPHF.  IDoFFX=0 NUNeed=     3.
      3 vectors produced by pass  0 Test12= 1.58D-13 3.33D-08 XBig12= 3.25D+01 3.03D+00.
 AX will form     3 AO Fock derivatives at one time.
      3 vectors produced by pass  1 Test12= 1.58D-13 3.33D-08 XBig12= 3.58D+00 3.68D-01.
      3 vectors produced by pass  2 Test12= 1.58D-13 3.33D-08 XBig12= 2.81D-01 1.00D-01.
      3 vectors produced by pass  3 Test12= 1.58D-13 3.33D-08 XBig12= 9.27D-03 1.91D-02.
      3 vectors produced by pass  4 Test12= 1.58D-13 3.33D-08 XBig12= 1.11D-03 8.35D-03.
      3 vectors produced by pass  5 Test12= 1.58D-13 3.33D-08 XBig12= 9.29D-05 2.62D-03.
      3 vectors produced by pass  6 Test12= 1.58D-13 3.33D-08 XBig12= 6.45D-06 7.72D-04.
      3 vectors produced by pass  7 Test12= 1.58D-13 3.33D-08 XBig12= 1.12D-06 4.13D-04.
      3 vectors produced by pass  8 Test12= 1.58D-13 3.33D-08 XBig12= 7.04D-08 3.93D-05.
      3 vectors produced by pass  9 Test12= 1.58D-13 3.33D-08 XBig12= 3.65D-09 8.84D-06.
      3 vectors produced by pass 10 Test12= 1.58D-13 3.33D-08 XBig12= 1.07D-10 1.92D-06.
      2 vectors produced by pass 11 Test12= 1.58D-13 3.33D-08 XBig12= 2.87D-12 3.11D-07.
      1 vectors produced by pass 12 Test12= 1.58D-13 3.33D-08 XBig12= 6.97D-14 3.56D-08.
 InvSVY:  IOpt=1 It=  1 EMax= 8.88D-16
 Solved reduced A of dimension    36 with     3 vectors.
 FullF1:  Do perturbations      1 to       3.
 SCF Polarizability for W=    0.000000:
                1             2             3 
      1  0.881054D+02
      2  0.301370D-02  0.818760D+02
      3 -0.143788D+01 -0.232738D-01  0.478461D+02
 Isotropic polarizability for W=    0.000000       72.61 Bohr**3.
 SCF Static Hyperpolarizability:
 K=  1 block:
                1 
      1  0.121241D+03
 K=  2 block:
                1             2 
      1  0.399508D-01
      2 -0.331112D+01 -0.309584D-01
 K=  3 block:
                1             2             3 
      1  0.381726D+01
      2  0.237975D-01  0.171347D+01
      3  0.367745D+02 -0.377410D-02  0.638483D+01
 End of Minotr F.D. properties file   721 does not exist.
 End of Minotr F.D. properties file   722 does not exist.
 End of Minotr F.D. properties file   788 does not exist.
 Leave Link 1002 at Thu Jun 20 08:41:22 2024, MaxMem=  5368709120 cpu:              31.3 elap:              16.0
 (Enter /scicomp/CentOS/7.4.1708/Skylake/software/Gaussian/g16/l601.exe)
 Copying SCF densities to generalized density rwf, IOpCl= 0 IROHF=0.

 **********************************************************************

            Population analysis using the SCF Density.

 **********************************************************************

 Alpha  occ. eigenvalues --  -20.58836 -11.30750 -11.25147 -11.25136 -11.24671
 Alpha  occ. eigenvalues --  -11.24668 -11.24532  -1.37667  -1.15368  -1.02342
 Alpha  occ. eigenvalues --   -1.01004  -0.83657  -0.82464  -0.72524  -0.67736
 Alpha  occ. eigenvalues --   -0.64747  -0.62838  -0.59085  -0.58889  -0.52194
 Alpha  occ. eigenvalues --   -0.51578  -0.49866  -0.47644  -0.34366  -0.33486
 Alpha virt. eigenvalues --    0.03425   0.04060   0.04159   0.05586   0.05854
 Alpha virt. eigenvalues --    0.07159   0.10238   0.10792   0.11671   0.12929
 Alpha virt. eigenvalues --    0.13770   0.14073   0.14395   0.14563   0.14632
 Alpha virt. eigenvalues --    0.15678   0.15822   0.16286   0.16761   0.16894
 Alpha virt. eigenvalues --    0.18043   0.18769   0.18809   0.19250   0.19357
 Alpha virt. eigenvalues --    0.19556   0.23255   0.26225   0.27504   0.29028
 Alpha virt. eigenvalues --    0.29500   0.30542   0.30574   0.32124   0.34801
 Alpha virt. eigenvalues --    0.34998   0.35363   0.35579   0.36643   0.37137
 Alpha virt. eigenvalues --    0.37460   0.37671   0.40028   0.40280   0.41167
 Alpha virt. eigenvalues --    0.41368   0.43140   0.43466   0.44084   0.46724
 Alpha virt. eigenvalues --    0.48496   0.49896   0.50141   0.51862   0.52444
 Alpha virt. eigenvalues --    0.53255   0.55697   0.57784   0.58143   0.58902
 Alpha virt. eigenvalues --    0.59694   0.60643   0.61844   0.63196   0.64874
 Alpha virt. eigenvalues --    0.65512   0.66735   0.67320   0.68439   0.68788
 Alpha virt. eigenvalues --    0.68915   0.70511   0.72414   0.74011   0.75244
 Alpha virt. eigenvalues --    0.75355   0.76312   0.76356   0.77070   0.80090
 Alpha virt. eigenvalues --    0.84188   0.85813   0.86611   0.86790   0.87471
 Alpha virt. eigenvalues --    0.91336   0.91888   0.92295   0.93267   0.93431
 Alpha virt. eigenvalues --    0.93839   0.94466   0.95942   0.97708   0.98097
 Alpha virt. eigenvalues --    0.99707   1.03329   1.03689   1.04273   1.06854
 Alpha virt. eigenvalues --    1.09080   1.14562   1.16122   1.17067   1.17662
 Alpha virt. eigenvalues --    1.24757   1.29255   1.35619   1.37890   1.41692
 Alpha virt. eigenvalues --    1.43885   1.46226   1.47643   1.48460   1.51977
 Alpha virt. eigenvalues --    1.53030   1.55008   1.56704   1.58770   1.60464
 Alpha virt. eigenvalues --    1.63156   1.63568   1.63933   1.64855   1.65941
 Alpha virt. eigenvalues --    1.67161   1.70315   1.70415   1.71354   1.73173
 Alpha virt. eigenvalues --    1.76732   1.79817   1.80015   1.86572   1.87691
 Alpha virt. eigenvalues --    1.88835   1.88875   1.90498   1.93053   1.94275
 Alpha virt. eigenvalues --    1.95148   1.96046   1.97770   1.98593   2.04376
 Alpha virt. eigenvalues --    2.05317   2.09434   2.11090   2.13249   2.16489
 Alpha virt. eigenvalues --    2.17926   2.19756   2.20632   2.21415   2.24668
 Alpha virt. eigenvalues --    2.25633   2.28675   2.31969   2.35447   2.36278
 Alpha virt. eigenvalues --    2.37724   2.41752   2.45255   2.46753   2.62246
 Alpha virt. eigenvalues --    2.62482   2.66719   2.70985   2.75678   2.76401
 Alpha virt. eigenvalues --    2.76896   2.84999   2.89770   2.94076   3.00620
 Alpha virt. eigenvalues --    3.05178   3.08461   3.12844   3.20263   3.27570
 Alpha virt. eigenvalues --    3.36555   3.51114   3.55023   3.74212   3.77203
 Alpha virt. eigenvalues --    3.83389   3.92327   4.00057   4.26661   4.71788
          Condensed to atoms (all electrons):
               1          2          3          4          5          6
     1  C    8.234190  -2.204774   2.242447  -2.373186   2.279578  -2.309430
     2  C   -2.204774   7.848231  -2.023107   2.133321  -2.374072   2.030365
     3  C    2.242447  -2.023107   7.509799  -2.020858   2.242266  -2.217503
     4  C   -2.373186   2.133321  -2.020858   7.847141  -2.204493   2.029390
     5  C    2.279578  -2.374072   2.242266  -2.204493   8.232607  -2.308665
     6  C   -2.309430   2.030365  -2.217503   2.029390  -2.308665   8.077345
     7  H   -0.541253   0.189413  -0.178671   0.114726  -0.079849   0.434088
     8  H    0.290290  -0.385699   0.311076  -0.157914   0.115869  -0.168880
     9  H   -0.148607   0.308293  -0.456050   0.306601  -0.149092   0.109495
    10  H    0.115969  -0.158224   0.310170  -0.385264   0.291078  -0.168752
    11  H   -0.079792   0.114649  -0.178329   0.189242  -0.540131   0.433310
    12  O    0.178041  -0.150023   0.128905  -0.149923   0.178715  -0.355118
    13  H   -0.050147   0.023033  -0.011633   0.023049  -0.050398   0.001212
               7          8          9         10         11         12
     1  C   -0.541253   0.290290  -0.148607   0.115969  -0.079792   0.178041
     2  C    0.189413  -0.385699   0.308293  -0.158224   0.114649  -0.150023
     3  C   -0.178671   0.311076  -0.456050   0.310170  -0.178329   0.128905
     4  C    0.114726  -0.157914   0.306601  -0.385264   0.189242  -0.149923
     5  C   -0.079849   0.115869  -0.149092   0.291078  -0.540131   0.178715
     6  C    0.434088  -0.168880   0.109495  -0.168752   0.433310  -0.355118
     7  H    1.602571  -0.078346  -0.008711   0.006926  -0.011088  -0.057983
     8  H   -0.078346   1.553529  -0.064001  -0.012381   0.006919  -0.001216
     9  H   -0.008711  -0.064001   1.580451  -0.064164  -0.008687   0.001641
    10  H    0.006926  -0.012381  -0.064164   1.553057  -0.078071  -0.001223
    11  H   -0.011088   0.006919  -0.008687  -0.078071   1.601525  -0.057986
    12  O   -0.057983  -0.001216   0.001641  -0.001223  -0.057986   8.732886
    13  H    0.007404   0.000012   0.000045   0.000016   0.007304   0.399023
              13
     1  C   -0.050147
     2  C    0.023033
     3  C   -0.011633
     4  C    0.023049
     5  C   -0.050398
     6  C    0.001212
     7  H    0.007404
     8  H    0.000012
     9  H    0.000045
    10  H    0.000016
    11  H    0.007304
    12  O    0.399023
    13  H    0.566290
 Mulliken charges:
               1
     1  C    0.366674
     2  C    0.648596
     3  C    0.341486
     4  C    0.648168
     5  C    0.366586
     6  C    0.413143
     7  H   -0.399228
     8  H   -0.409257
     9  H   -0.407212
    10  H   -0.409137
    11  H   -0.398867
    12  O   -0.845740
    13  H    0.084789
 Sum of Mulliken charges =  -0.00000
 Mulliken charges with hydrogens summed into heavy atoms:
               1
     1  C   -0.032555
     2  C    0.239339
     3  C   -0.065726
     4  C    0.239032
     5  C   -0.032281
     6  C    0.413143
    12  O   -0.760951
 Electronic spatial extent (au):  <R**2>=           2956.7129
 Charge=             -0.0000 electrons
 Dipole moment (field-independent basis, Debye):
    X=              0.8650    Y=             -0.0028    Z=              1.4533  Tot=              1.6913
 Quadrupole moment (field-independent basis, Debye-Ang):
   XX=            -38.9585   YY=            -36.7852   ZZ=            -44.3251
   XY=              3.0694   XZ=             -3.9035   YZ=              5.1314
 Traceless Quadrupole moment (field-independent basis, Debye-Ang):
   XX=              1.0645   YY=              3.2377   ZZ=             -4.3022
   XY=              3.0694   XZ=             -3.9035   YZ=              5.1314
 Octapole moment (field-independent basis, Debye-Ang**2):
  XXX=            -58.8153  YYY=           -390.3244  ZZZ=              0.1343  XYY=             -8.1540
  XXY=           -137.8400  XXZ=              8.4612  XZZ=            -33.7730  YZZ=           -156.8199
  YYZ=             17.3810  XYZ=            -13.8073
 Hexadecapole moment (field-independent basis, Debye-Ang**3):
 XXXX=           -575.1687 YYYY=          -3034.4972 ZZZZ=            -54.7178 XXXY=           -208.0085
 XXXZ=            -18.4101 YYYX=           -163.4905 YYYZ=             56.1893 ZZZX=             -1.2731
 ZZZY=              0.5636 XXYY=           -630.2536 XXZZ=           -117.7042 YYZZ=           -622.5300
 XXYZ=             29.9258 YYXZ=            -47.9949 ZZXY=           -119.4772
 N-N= 2.688524370004D+02 E-N=-1.252125971157D+03  KE= 3.050570045752D+02
  Exact polarizability:  88.105   0.003  81.876  -1.438  -0.023  47.846
 Approx polarizability:  81.606   0.004  79.919  -0.751  -0.020  51.967
 No NMR shielding tensors so no spin-rotation constants.
 Leave Link  601 at Thu Jun 20 08:41:22 2024, MaxMem=  5368709120 cpu:               0.3 elap:               0.2
 (Enter /scicomp/CentOS/7.4.1708/Skylake/software/Gaussian/g16/l9999.exe)

 ----------------------------------------------------------------------

 Electric dipole moment (input orientation):
 (Debye = 10**-18 statcoulomb cm , SI units = C m)
                  (au)            (Debye)         (10**-30 SI)
   Tot        0.665406D+00      0.169129D+01      0.564155D+01
   x          0.340328D+00      0.865029D+00      0.288542D+01
   y         -0.109959D-02     -0.279489D-02     -0.932273D-02
   z          0.571788D+00      0.145334D+01      0.484782D+01

 Dipole polarizability, Alpha (input orientation).
 (esu units = cm**3 , SI units = C**2 m**2 J**-1)
 Alpha(0;0):
               (au)            (10**-24 esu)      (10**-40 SI)
   iso        0.726092D+02      0.107596D+02      0.119716D+02
   aniso      0.376169D+02      0.557424D+01      0.620218D+01
   xx         0.881054D+02      0.130559D+02      0.145266D+02
   yx         0.301370D-02      0.446584D-03      0.496891D-03
   yy         0.818760D+02      0.121328D+02      0.134995D+02
   zx        -0.143788D+01     -0.213072D+00     -0.237074D+00
   zy        -0.232738D-01     -0.344882D-02     -0.383733D-02
   zz         0.478461D+02      0.709006D+01      0.788876D+01

 First dipole hyperpolarizability, Beta (input orientation).
 ||, _|_  parallel and perpendicular components, (z) with respect to z axis,
 vector components x,y,z.  Values do not include the 1/n! factor of 1/2.
 (esu units = statvolt**-1 cm**4 , SI units = C**3 m**3 J**-2)
 Beta(0;0,0):
               (au)            (10**-30 esu)      (10**-50 SI)
   || (z)     0.714933D+01      0.617647D-01      0.229233D-01
   _|_(z)     0.238311D+01      0.205882D-01      0.764112D-02
   x          0.464113D+03      0.400958D+01      0.148811D+01
   y          0.156547D-01      0.135245D-03      0.501947D-04
   z          0.357467D+02      0.308823D+00      0.114617D+00
   ||         0.930975D+02      0.804290D+00      0.298504D+00
   xxx        0.121241D+03      0.104743D+01      0.388743D+00
   xxy        0.399508D-01      0.345143D-03      0.128097D-03
   yxy       -0.331112D+01     -0.286055D-01     -0.106166D-01
   yyy       -0.309584D-01     -0.267457D-03     -0.992639D-04
   xxz        0.381726D+01      0.329781D-01      0.122395D-01
   yxz        0.237975D-01      0.205592D-03      0.763033D-04
   yyz        0.171347D+01      0.148031D-01      0.549401D-02
   zxz        0.367745D+02      0.317703D+00      0.117912D+00
   zyz       -0.377410D-02     -0.326053D-04     -0.121011D-04
   zzz        0.638483D+01      0.551599D-01      0.204721D-01

 ----------------------------------------------------------------------

 Dipole orientation:
     6          0.42709444          4.40298340          0.24573968
     6          2.69263250          4.40418188          1.59418749
     6          3.82637081          6.68709634          2.26459925
     6          2.69567861          8.97024097          1.58458289
     6          0.43114743          8.96889389          0.23568128
     6         -0.70365622          6.68512266         -0.43317259
     1         -0.46688766          2.60289688         -0.28190789
     1          3.58286481          2.60467196          2.13040696
     1          5.61147938          6.68819415          3.32848948
     1          3.58999877         10.77000028          2.11329216
     1         -0.46043201         10.76796599         -0.30054307
     8         -3.02554289          6.68434324         -1.81567472
     1         -4.42112624          6.68347919         -0.65660624

 Electric dipole moment (dipole orientation):
 (Debye = 10**-18 statcoulomb cm , SI units = C m)
                  (au)            (Debye)         (10**-30 SI)
   Tot        0.665406D+00      0.169129D+01      0.564155D+01
   x          0.000000D+00      0.000000D+00      0.000000D+00
   y          0.000000D+00      0.000000D+00      0.000000D+00
   z          0.665406D+00      0.169129D+01      0.564155D+01

 Dipole polarizability, Alpha (dipole orientation).
 (esu units = cm**3 , SI units = C**2 m**2 J**-1)
 Alpha(0;0):
               (au)            (10**-24 esu)      (10**-40 SI)
   iso        0.726092D+02      0.107596D+02      0.119716D+02
   aniso      0.376169D+02      0.557424D+01      0.620218D+01
   xx         0.788379D+02      0.116826D+02      0.129986D+02
   yx         0.439809D-01      0.651730D-02      0.725147D-02
   yy         0.818759D+02      0.121328D+02      0.134995D+02
   zx         0.170083D+02      0.252037D+01      0.280429D+01
   zy        -0.671094D-01     -0.994459D-02     -0.110648D-01
   zz         0.571138D+02      0.846340D+01      0.941680D+01

 First dipole hyperpolarizability, Beta (dipole orientation).
 ||, _|_  parallel and perpendicular components, (z) with respect to z axis,
 vector components x,y,z.  Values do not include the 1/n! factor of 1/2.
 (esu units = statvolt**-1 cm**4 , SI units = C**3 m**3 J**-2)
 Beta(0;0,0):
               (au)            (10**-30 esu)      (10**-50 SI)
   || (z)     0.536185D+02      0.463222D+00      0.171920D+00
   _|_(z)     0.178728D+02      0.154407D+00      0.573067D-01
   x          0.380533D+03      0.328751D+01      0.122013D+01
   y          0.285701D+00      0.246823D-02      0.916059D-03
   z          0.268092D+03      0.231611D+01      0.859601D+00
   ||         0.930975D+02      0.804290D+00      0.298504D+00
   xxx        0.965499D+02      0.834116D+00      0.309574D+00
   xxy        0.175573D-02      0.151681D-04      0.562949D-05
   yxy       -0.372147D+01     -0.321506D-01     -0.119324D-01
   yyy       -0.269789D-01     -0.233076D-03     -0.865040D-04
   xxz        0.250731D+02      0.216612D+00      0.803936D-01
   yxz        0.814277D-01      0.703472D-03      0.261087D-03
   yyz       -0.220864D+00     -0.190809D-02     -0.708169D-03
   zxz        0.340158D+02      0.293870D+00      0.109067D+00
   zyz        0.120457D+00      0.104065D-02      0.386228D-03
   zzz        0.645118D+02      0.557332D+00      0.206848D+00

 ----------------------------------------------------------------------

 Test job not archived.
 1\1\GINC-ATLAS-303\SP\RHF\Aug-CC-pVDZ\C6H6O1\PMILEV\20-Jun-2024\0\\#P 
 hf/aug-cc-pvdz IOp(3/59=10) nosymm polar\\Performing amonia check orca
  calculation and saving the results F=Z+1.dF dF=0.00001au\\0,1\C,0,0.2
 6178012,2.3298429,0.\C,0,1.65694012,2.3298429,0.\C,0,2.35447812,3.5375
 939,0.\C,0,1.65682412,4.7461029,-0.001199\C,0,0.26199912,4.7460249,-0.
 001678\C,0,-0.43560188,3.5378189,-0.000682\H,0,-0.28797888,1.3775259,0
 .00045\H,0,2.20644812,1.3773299,0.001315\H,0,3.45415812,3.5376739,0.00
 0634\H,0,2.20702412,5.6982459,-0.001258\H,0,-0.28812288,5.6983059,-0.0
 02631\O,0,-1.86560184,3.53805688,-0.00091608\H,0,-2.18650479,3.5362503
 6,0.90385905\\Version=ES64L-G16RevB.01\HF=-305.5939748\RMSD=6.059e-09\
 Dipole=0.3403284,-0.0010996,0.5717876\Polar=88.1054105,0.0030137,81.87
 60248,-1.4378799,-0.0232738,47.8461293\HyperPolar=121.2410185,0.039950
 8,-3.3111192,-0.0309584,3.8172577,0.0237975,1.7134708,36.7744531,-0.00
 37741,6.3848278\Quadrupole=0.7913963,2.4071556,-3.198552,2.2820086,-2.
 9021736,3.815092\PG=C01 [X(C6H6O1)]\\@


 IT IS WELL TO REMEMBER THAT MAN IS A PART OF NATURE AND THAT HIS WORKS,
 WHATEVER THEY MAY BE, ARE NO MORE "UNNATURAL" THAN 
 THE FLIGHT OF AN EAGLE OR THE PASSAGE OF A TORNADO.

                                    -- CHARLES MCCARRY IN "THE GREAT SOUTHWEST"
 Job cpu time:       0 days  0 hours  0 minutes 50.2 seconds.
 Elapsed time:       0 days  0 hours  0 minutes 27.8 seconds.
 File lengths (MBytes):  RWF=     64 Int=      0 D2E=      0 Chk=      4 Scr=      1
 Normal termination of Gaussian 16 at Thu Jun 20 08:41:22 2024.
