
                                 *****************
                                 * O   R   C   A *
                                 *****************

                                            #,                                       
                                            ###                                      
                                            ####                                     
                                            #####                                    
                                            ######                                   
                                           ########,                                 
                                     ,,################,,,,,                         
                               ,,#################################,,                 
                          ,,##########################################,,             
                       ,#########################################, ''#####,          
                    ,#############################################,,   '####,        
                  ,##################################################,,,,####,       
                ,###########''''           ''''###############################       
              ,#####''   ,,,,##########,,,,          '''####'''          '####       
            ,##' ,,,,###########################,,,                        '##       
           ' ,,###''''                  '''############,,,                           
         ,,##''                                '''############,,,,        ,,,,,,###''
      ,#''                                            '''#######################'''  
     '                                                          ''''####''''         
             ,#######,   #######,   ,#######,      ##                                
            ,#'     '#,  ##    ##  ,#'     '#,    #''#        ######   ,####,        
            ##       ##  ##   ,#'  ##            #'  '#       #        #'  '#        
            ##       ##  #######   ##           ,######,      #####,   #    #        
            '#,     ,#'  ##    ##  '#,     ,#' ,#      #,         ##   #,  ,#        
             '#######'   ##     ##  '#######'  #'      '#     #####' # '####'        



                  #######################################################
                  #                        -***-                        #
                  #          Department of theory and spectroscopy      #
                  #    Directorship and core code : Frank Neese         #
                  #        Max Planck Institute fuer Kohlenforschung    #
                  #                Kaiser Wilhelm Platz 1               #
                  #                 D-45470 Muelheim/Ruhr               #
                  #                      Germany                        #
                  #                                                     #
                  #                  All rights reserved                #
                  #                        -***-                        #
                  #######################################################


                         Program Version 5.0.4 -  RELEASE  -


 With contributions from (in alphabetic order):
   Daniel Aravena         : Magnetic Suceptibility
   Michael Atanasov       : Ab Initio Ligand Field Theory (pilot matlab implementation)
   Alexander A. Auer      : GIAO ZORA, VPT2 properties, NMR spectrum
   Ute Becker             : Parallelization
   Giovanni Bistoni       : ED, misc. LED, open-shell LED, HFLD
   Martin Brehm           : Molecular dynamics
   Dmytro Bykov           : SCF Hessian
   Vijay G. Chilkuri      : MRCI spin determinant printing, contributions to CSF-ICE
   Dipayan Datta          : RHF DLPNO-CCSD density
   Achintya Kumar Dutta   : EOM-CC, STEOM-CC
   Dmitry Ganyushin       : Spin-Orbit,Spin-Spin,Magnetic field MRCI
   Miquel Garcia          : C-PCM and meta-GGA Hessian, CC/C-PCM, Gaussian charge scheme
   Yang Guo               : DLPNO-NEVPT2, F12-NEVPT2, CIM, IAO-localization
   Andreas Hansen         : Spin unrestricted coupled pair/coupled cluster methods
   Benjamin Helmich-Paris : MC-RPA, TRAH-SCF, COSX integrals
   Lee Huntington         : MR-EOM, pCC
   Robert Izsak           : Overlap fitted RIJCOSX, COSX-SCS-MP3, EOM
   Marcus Kettner         : VPT2
   Christian Kollmar      : KDIIS, OOCD, Brueckner-CCSD(T), CCSD density, CASPT2, CASPT2-K
   Simone Kossmann        : Meta GGA functionals, TD-DFT gradient, OOMP2, MP2 Hessian
   Martin Krupicka        : Initial AUTO-CI
   Lucas Lang             : DCDCAS
   Marvin Lechner         : AUTO-CI (C++ implementation), FIC-MRCC
   Dagmar Lenk            : GEPOL surface, SMD
   Dimitrios Liakos       : Extrapolation schemes; Compound Job, initial MDCI parallelization
   Dimitrios Manganas     : Further ROCIS development; embedding schemes
   Dimitrios Pantazis     : SARC Basis sets
   Anastasios Papadopoulos: AUTO-CI, single reference methods and gradients
   Taras Petrenko         : DFT Hessian,TD-DFT gradient, ASA, ECA, R-Raman, ABS, FL, XAS/XES, NRVS
   Peter Pinski           : DLPNO-MP2, DLPNO-MP2 Gradient
   Christoph Reimann      : Effective Core Potentials
   Marius Retegan         : Local ZFS, SOC
   Christoph Riplinger    : Optimizer, TS searches, QM/MM, DLPNO-CCSD(T), (RO)-DLPNO pert. Triples
   Tobias Risthaus        : Range-separated hybrids, TD-DFT gradient, RPA, STAB
   Michael Roemelt        : Original ROCIS implementation
   Masaaki Saitow         : Open-shell DLPNO-CCSD energy and density
   Barbara Sandhoefer     : DKH picture change effects
   Avijit Sen             : IP-ROCIS
   Kantharuban Sivalingam : CASSCF convergence, NEVPT2, FIC-MRCI
   Bernardo de Souza      : ESD, SOC TD-DFT
   Georgi Stoychev        : AutoAux, RI-MP2 NMR, DLPNO-MP2 response
   Willem Van den Heuvel  : Paramagnetic NMR
   Boris Wezisla          : Elementary symmetry handling
   Frank Wennmohs         : Technical directorship


 We gratefully acknowledge several colleagues who have allowed us to
 interface, adapt or use parts of their codes:
   Stefan Grimme, W. Hujo, H. Kruse, P. Pracht,  : VdW corrections, initial TS optimization,
                  C. Bannwarth, S. Ehlert          DFT functionals, gCP, sTDA/sTD-DF
   Ed Valeev, F. Pavosevic, A. Kumar             : LibInt (2-el integral package), F12 methods
   Garnet Chan, S. Sharma, J. Yang, R. Olivares  : DMRG
   Ulf Ekstrom                                   : XCFun DFT Library
   Mihaly Kallay                                 : mrcc  (arbitrary order and MRCC methods)
   Jiri Pittner, Ondrej Demel                    : Mk-CCSD
   Frank Weinhold                                : gennbo (NPA and NBO analysis)
   Christopher J. Cramer and Donald G. Truhlar   : smd solvation model
   Lars Goerigk                                  : TD-DFT with DH, B97 family of functionals
   V. Asgeirsson, H. Jonsson                     : NEB implementation
   FAccTs GmbH                                   : IRC, NEB, NEB-TS, DLPNO-Multilevel, CI-OPT
                                                   MM, QMMM, 2- and 3-layer-ONIOM, Crystal-QMMM,
                                                   LR-CPCM, SF, NACMEs, symmetry and pop. for TD-DFT,
                                                   nearIR, NL-DFT gradient (VV10), updates on ESD,
                                                   ML-optimized integration grids
   S Lehtola, MJT Oliveira, MAL Marques          : LibXC Library
   Liviu Ungur et al                             : ANISO software


 Your calculation uses the libint2 library for the computation of 2-el integrals
 For citations please refer to: http://libint.valeyev.net

 Your ORCA version has been built with support for libXC version: 5.1.0
 For citations please refer to: https://tddft.org/programs/libxc/

 This ORCA versions uses:
   CBLAS   interface :  Fast vector & matrix operations
   LAPACKE interface :  Fast linear algebra routines
   SCALAPACK package :  Parallel linear algebra routines
   Shared memory     :  Shared parallel matrices
   BLAS/LAPACK       :  OpenBLAS 0.3.15  USE64BITINT DYNAMIC_ARCH NO_AFFINITY SkylakeX SINGLE_THREADED
        Core in use  :  SkylakeX
   Copyright (c) 2011-2014, The OpenBLAS Project


================================================================================

----- Orbital basis set information -----
Your calculation utilizes the basis: aug-cc-pVDZ 
    H, B-Ne : Obtained from the ccRepo (grant-hill.group.shef.ac.uk/ccrepo) Feb. 2017
              R. A. Kendall, T. H. Dunning, Jr., R. J. Harrison, J. Chem. Phys. 96, 6796 (1992)
         He : Obtained from the ccRepo (grant-hill.group.shef.ac.uk/ccrepo) Feb. 2017
              D. E. Woon, T. H. Dunning, Jr., J. Chem. Phys. 100, 2975 (1994)
  Li-Be, Na : Obtained from the ccRepo (grant-hill.group.shef.ac.uk/ccrepo) Feb. 2017
              B. P. Prascher, D. E. Woon, K. A. Peterson, T. H. Dunning, Jr., A. K. Wilson, Theor. Chem. Acc. 128, 69 (2011)
         Mg : Obtained from the Peterson Research Group Website (tyr0.chem.wsu.edu/~kipeters) Feb. 2017
              B. P. Prascher, D. E. Woon, K. A. Peterson, T. H. Dunning, Jr., A. K. Wilson, Theor. Chem. Acc. 128, 69 (2011)
      Al-Ar : Obtained from the ccRepo (grant-hill.group.shef.ac.uk/ccrepo) Feb. 2017
              D. E. Woon, T. H. Dunning, Jr., J. Chem. Phys. 98, 1358 (1993)
      Sc-Zn : Obtained from the ccRepo (grant-hill.group.shef.ac.uk/ccrepo) Feb. 2017
              N. B. Balabanov, K. A. Peterson, J. Chem. Phys. 123, 064107 (2005)
              N. B. Balabanov, K. A. Peterson, J. Chem. Phys. 125, 074110 (2006)
      Ga-Kr : Obtained from the ccRepo (grant-hill.group.shef.ac.uk/ccrepo) Feb. 2017
              A. K. Wilson, D. E. Woon, K. A. Peterson, T. H. Dunning, Jr., J. Chem. Phys. 110, 7667 (1999)

================================================================================
                                        WARNINGS
                       Please study these warnings very carefully!
================================================================================


INFO   : the flag for use of the SHARK integral package has been found!

================================================================================
                                       INPUT FILE
================================================================================
NAME = phenol_efield_y_0.001.inp
|  1> ! hf aug-cc-pVDZ
|  2> ! MiniPrint VeryTightSCF
|  3> %pal
|  4>  nprocs 16
|  5> end
|  6> %MaxCore 2000
|  7> %scf
|  8>  maxiter=200
|  9>  efield 0.0 , 0.001 , 0.0
| 10> end
| 11> %elprop
| 12>   polar 1
| 13> end
| 14> * xyz 0 1
| 15>  C                  0.26178012    2.32984290    0.00000000
| 16>  C                  1.65694012    2.32984290    0.00000000
| 17>  C                  2.35447812    3.53759390    0.00000000
| 18>  C                  1.65682412    4.74610290   -0.00119900
| 19>  C                  0.26199912    4.74602490   -0.00167800
| 20>  C                 -0.43560188    3.53781890   -0.00068200
| 21>  H                 -0.28797888    1.37752590    0.00045000
| 22>  H                  2.20644812    1.37732990    0.00131500
| 23>  H                  3.45415812    3.53767390    0.00063400
| 24>  H                  2.20702412    5.69824590   -0.00125800
| 25>  H                 -0.28812288    5.69830590   -0.00263100
| 26>  O                 -1.86560184    3.53805688   -0.00091608
| 27>  H                 -2.18650479    3.53625036    0.90385905
| 28> *
| 29> 
| 30>                          ****END OF INPUT****
================================================================================

                       ****************************
                       * Single Point Calculation *
                       ****************************

---------------------------------
CARTESIAN COORDINATES (ANGSTROEM)
---------------------------------
  C      0.261780    2.329843    0.000000
  C      1.656940    2.329843    0.000000
  C      2.354478    3.537594    0.000000
  C      1.656824    4.746103   -0.001199
  C      0.261999    4.746025   -0.001678
  C     -0.435602    3.537819   -0.000682
  H     -0.287979    1.377526    0.000450
  H      2.206448    1.377330    0.001315
  H      3.454158    3.537674    0.000634
  H      2.207024    5.698246   -0.001258
  H     -0.288123    5.698306   -0.002631
  O     -1.865602    3.538057   -0.000916
  H     -2.186505    3.536250    0.903859

----------------------------
CARTESIAN COORDINATES (A.U.)
----------------------------
  NO LB      ZA    FRAG     MASS         X           Y           Z
   0 C     6.0000    0    12.011    0.494693    4.402765    0.000000
   1 C     6.0000    0    12.011    3.131163    4.402765    0.000000
   2 C     6.0000    0    12.011    4.449319    6.685084    0.000000
   3 C     6.0000    0    12.011    3.130944    8.968835   -0.002266
   4 C     6.0000    0    12.011    0.495107    8.968687   -0.003171
   5 C     6.0000    0    12.011   -0.823168    6.685509   -0.001289
   6 H     1.0000    0     1.008   -0.544201    2.603147    0.000850
   7 H     1.0000    0     1.008    4.169583    2.602776    0.002485
   8 H     1.0000    0     1.008    6.527413    6.685235    0.001198
   9 H     1.0000    0     1.008    4.170671   10.768124   -0.002377
  10 H     1.0000    0     1.008   -0.544473   10.768238   -0.004972
  11 O     8.0000    0    15.999   -3.525477    6.685959   -0.001731
  12 H     1.0000    0     1.008   -4.131895    6.682545    1.708046



           ************************************************************
           *        Program running with 16 parallel MPI-processes    *
           *              working on a common directory               *
           ************************************************************
------------------------------------------------------------------------------
                   ___                                                        
                  /   \      - P O W E R E D   B Y -                         
                 /     \                                                     
                 |  |  |   _    _      __       _____    __    __             
                 |  |  |  | |  | |    /  \     |  _  \  |  |  /  |          
                  \  \/   | |  | |   /    \    | | | |  |  | /  /          
                 / \  \   | |__| |  /  /\  \   | |_| |  |  |/  /          
                |  |  |   |  __  | /  /__\  \  |    /   |      \           
                |  |  |   | |  | | |   __   |  |    \   |  |\   \          
                \     /   | |  | | |  |  |  |  | |\  \  |  | \   \       
                 \___/    |_|  |_| |__|  |__|  |_| \__\ |__|  \__/        
                                                                              
                      - O R C A' S   B I G   F R I E N D -                    
                                      &                                       
                       - I N T E G R A L  F E E D E R -                       
                                                                              
 v1 FN, 2020, v2 2021                                                         
------------------------------------------------------------------------------


Reading SHARK input file phenol_efield_y_0.001.SHARKINP.tmp ... ok
----------------------
SHARK INTEGRAL PACKAGE
----------------------

Number of atoms                             ...     13
Number of basis functions                   ...    257
Number of shells                            ...    135
Maximum angular momentum                    ...      2
Integral batch strategy                     ... SHARK/LIBINT Hybrid
RI-J (if used) integral strategy            ... SPLIT-RIJ (Revised 2003 algorithm where possible)
Printlevel                                  ...      1
Contraction scheme used                     ... PARTIAL GENERAL contraction
Coulomb Range Separation                    ... NOT USED
Exchange Range Separation                   ... NOT USED
Finite Nucleus Model                        ... NOT USED
Auxiliary Coulomb fitting basis             ... NOT available
Auxiliary J/K fitting basis                 ... NOT available
Auxiliary Correlation fitting basis         ... NOT available
Auxiliary 'external' fitting basis          ... NOT available
Integral threshold                          ...     1.000000e-12
Primitive cut-off                           ...     1.000000e-14
Primitive pair pre-selection threshold      ...     1.000000e-14

Calculating pre-screening integrals         ... done (  0.0 sec) Dimension = 135
Calculating pre-screening integrals (ORCA)  ... done (  0.1 sec) Dimension = 93
Organizing shell pair data                  ... done (  0.0 sec)
Shell pair information
Total number of shell pairs                 ...      9180
Shell pairs after pre-screening             ...      8071
Total number of primitive shell pairs       ...     13080
Primitive shell pairs kept                  ...     10795
          la=0 lb=0:   2934 shell pairs
          la=1 lb=0:   2805 shell pairs
          la=1 lb=1:    559 shell pairs
          la=2 lb=0:   1207 shell pairs
          la=2 lb=1:    461 shell pairs
          la=2 lb=2:    105 shell pairs

Calculating one electron integrals          ... done (  0.0 sec)
Calculating Nuclear repulsion               ... done (  0.0 sec) ENN=    268.852435669254 Eh

SHARK setup successfully completed in   0.3 seconds

Maximum memory used throughout the entire GTOINT-calculation: 17.0 MB

An Electric Field will be added: 0.000e+00 1.000e-03 0.000e+00 au

  ... done adding electric field perturbation



           ************************************************************
           *        Program running with 16 parallel MPI-processes    *
           *              working on a common directory               *
           ************************************************************

Diagonalization of the overlap matrix:
Smallest eigenvalue                        ... 2.604e-06
Time for diagonalization                   ...    0.006 sec
Threshold for overlap eigenvalues          ... 1.000e-08
Number of eigenvalues below threshold      ... 0
Time for construction of square roots      ...    0.016 sec
Total time needed                          ...    0.022 sec

Time for model grid setup =    0.060 sec

Loading Hartree-Fock densities                     ... done
Calculating cut-offs                               ... done
Initializing the effective Hamiltonian             ... done
Setting up the integral package (SHARK)            ... done
Starting the Coulomb interaction                   ... done (   0.0 sec)
Reading the grid                                   ... done
Mapping shells                                     ... done
Starting the XC term evaluation                    ... done (   0.0 sec)
Transforming the Hamiltonian                       ... done (   0.0 sec)
Diagonalizing the Hamiltonian                      ... done (   0.0 sec)
Back transforming the eigenvectors                 ... done (   0.0 sec)
Now organizing SCF variables                       ... done
--------------
SCF ITERATIONS
--------------
ITER       Energy         Delta-E        Max-DP      RMS-DP      [F,P]     Damp
               ***  Starting incremental Fock matrix formation  ***
  0   -305.3387747685   0.000000000000 0.92453781  0.02223463  0.2211281 0.7000
  1   -305.4268745528  -0.088099784285 0.68209060  0.01661142  0.1383120 0.7000
                               ***Turning on DIIS***
  2   -305.4811017276  -0.054227174785 1.57801208  0.03835390  0.0804829 0.0000
  3   -305.0053428062   0.475758921333 0.03814195  0.00153736  0.0393743 0.0000
  4   -305.5466005292  -0.541257722928 0.05909950  0.00107836  0.0051177 0.0000
  5   -305.5790001335  -0.032399604379 0.01778539  0.00036809  0.0033075 0.0000
                      *** Initiating the SOSCF procedure ***
                           *** Shutting down DIIS ***
                      *** Re-Reading the Fockian *** 
                      *** Removing any level shift *** 
ITER      Energy       Delta-E        Grad      Rot      Max-DP    RMS-DP
  6   -305.59057747  -0.0115773321  0.000379  0.000379  0.002667  0.000063
               *** Restarting incremental Fock matrix formation ***
  7   -305.59401219  -0.0034347238  0.000197  0.000436  0.001247  0.000043
  8   -305.59401391  -0.0000017163  0.000099  0.000480  0.002039  0.000050
  9   -305.59401453  -0.0000006196  0.000033  0.000105  0.000300  0.000010
 10   -305.59401461  -0.0000000803  0.000015  0.000061  0.000309  0.000007
 11   -305.59401463  -0.0000000233  0.000006  0.000037  0.000100  0.000003
 12   -305.59401463  -0.0000000034  0.000001  0.000004  0.000019  0.000001
 13   -305.59401463  -0.0000000002  0.000001  0.000001  0.000018  0.000000
                  ***Gradient check signals convergence***
              ***Rediagonalizing the Fockian in SOSCF/NRSCF***

               *****************************************************
               *                     SUCCESS                       *
               *           SCF CONVERGED AFTER  14 CYCLES          *
               *****************************************************

Total Energy       :         -305.59401463 Eh           -8315.63590 eV
  Last Energy change         ...   -2.0464e-12  Tolerance :   1.0000e-09
  Last MAX-Density change    ...    5.2941e-06  Tolerance :   1.0000e-08
             **** THE GBW FILE WAS UPDATED (phenol_efield_y_0.001.gbw) ****
             **** DENSITY phenol_efield_y_0.001.scfp WAS UPDATED ****
             **** ENERGY FILE WAS UPDATED (phenol_efield_y_0.001.en.tmp) ****
             **** THE GBW FILE WAS UPDATED (phenol_efield_y_0.001.gbw) ****
             **** DENSITY phenol_efield_y_0.001.scfp WAS UPDATED ****
----------------
ORBITAL ENERGIES
----------------

  NO   OCC          E(Eh)            E(eV) 
   0   2.0000     -20.588363      -560.2378 
   1   2.0000     -11.307509      -307.6930 
   2   2.0000     -11.252102      -306.1853 
   3   2.0000     -11.250733      -306.1480 
   4   2.0000     -11.247399      -306.0573 
   5   2.0000     -11.246004      -306.0193 
   6   2.0000     -11.245317      -306.0006 
   7   2.0000      -1.376675       -37.4612 
   8   2.0000      -1.153684       -31.3933 
   9   2.0000      -1.023420       -27.8487 
  10   2.0000      -1.010046       -27.4848 
  11   2.0000      -0.836578       -22.7644 
  12   2.0000      -0.824645       -22.4397 
  13   2.0000      -0.725250       -19.7351 
  14   2.0000      -0.677368       -18.4321 
  15   2.0000      -0.647474       -17.6187 
  16   2.0000      -0.628388       -17.0993 
  17   2.0000      -0.590850       -16.0779 
  18   2.0000      -0.588901       -16.0248 
  19   2.0000      -0.521936       -14.2026 
  20   2.0000      -0.515778       -14.0350 
  21   2.0000      -0.498673       -13.5696 
  22   2.0000      -0.476441       -12.9646 
  23   2.0000      -0.343659        -9.3514 
  24   2.0000      -0.334869        -9.1122 
  25   0.0000       0.031422         0.8550 
  26   0.0000       0.039484         1.0744 
  27   0.0000       0.043013         1.1704 
  28   0.0000       0.056664         1.5419 
  29   0.0000       0.058104         1.5811 
  30   0.0000       0.073228         1.9926 
  31   0.0000       0.102315         2.7841 
  32   0.0000       0.107785         2.9330 
  33   0.0000       0.116645         3.1741 
  34   0.0000       0.128971         3.5095 
  35   0.0000       0.137657         3.7458 
  36   0.0000       0.140002         3.8096 
  37   0.0000       0.143647         3.9088 
  38   0.0000       0.145313         3.9542 
  39   0.0000       0.146261         3.9800 
  40   0.0000       0.156761         4.2657 
  41   0.0000       0.157488         4.2855 
  42   0.0000       0.164202         4.4682 
  43   0.0000       0.167086         4.5466 
  44   0.0000       0.169740         4.6188 
  45   0.0000       0.180466         4.9107 
  46   0.0000       0.187778         5.1097 
  47   0.0000       0.188016         5.1162 
  48   0.0000       0.192453         5.2369 
  49   0.0000       0.193678         5.2703 
  50   0.0000       0.196755         5.3540 
  51   0.0000       0.232592         6.3291 
  52   0.0000       0.262054         7.1308 
  53   0.0000       0.275195         7.4884 
  54   0.0000       0.290209         7.8970 
  55   0.0000       0.295043         8.0285 
  56   0.0000       0.305188         8.3046 
  57   0.0000       0.305986         8.3263 
  58   0.0000       0.321205         8.7404 
  59   0.0000       0.347877         9.4662 
  60   0.0000       0.349857         9.5201 
  61   0.0000       0.353679         9.6241 
  62   0.0000       0.355691         9.6789 
  63   0.0000       0.366350         9.9689 
  64   0.0000       0.371405        10.1064 
  65   0.0000       0.374459        10.1896 
  66   0.0000       0.376858        10.2548 
  67   0.0000       0.400059        10.8862 
  68   0.0000       0.403120        10.9694 
  69   0.0000       0.411728        11.2037 
  70   0.0000       0.413701        11.2574 
  71   0.0000       0.431369        11.7382 
  72   0.0000       0.434915        11.8346 
  73   0.0000       0.440835        11.9957 
  74   0.0000       0.467231        12.7140 
  75   0.0000       0.484963        13.1965 
  76   0.0000       0.498955        13.5773 
  77   0.0000       0.501355        13.6426 
  78   0.0000       0.518624        14.1125 
  79   0.0000       0.524454        14.2711 
  80   0.0000       0.532542        14.4912 
  81   0.0000       0.557077        15.1588 
  82   0.0000       0.577725        15.7207 
  83   0.0000       0.581482        15.8229 
  84   0.0000       0.589039        16.0286 
  85   0.0000       0.596918        16.2430 
  86   0.0000       0.606424        16.5016 
  87   0.0000       0.618419        16.8280 
  88   0.0000       0.631942        17.1960 
  89   0.0000       0.648757        17.6536 
  90   0.0000       0.655111        17.8265 
  91   0.0000       0.667343        18.1593 
  92   0.0000       0.673140        18.3171 
  93   0.0000       0.684383        18.6230 
  94   0.0000       0.687713        18.7136 
  95   0.0000       0.689379        18.7590 
  96   0.0000       0.705102        19.1868 
  97   0.0000       0.724118        19.7043 
  98   0.0000       0.740102        20.1392 
  99   0.0000       0.752265        20.4702 
 100   0.0000       0.753686        20.5088 
 101   0.0000       0.763111        20.7653 
 102   0.0000       0.763599        20.7786 
 103   0.0000       0.770889        20.9769 
 104   0.0000       0.800899        21.7936 
 105   0.0000       0.841873        22.9085 
 106   0.0000       0.858064        23.3491 
 107   0.0000       0.866081        23.5673 
 108   0.0000       0.867960        23.6184 
 109   0.0000       0.874746        23.8031 
 110   0.0000       0.913338        24.8532 
 111   0.0000       0.918759        25.0007 
 112   0.0000       0.922963        25.1151 
 113   0.0000       0.932652        25.3788 
 114   0.0000       0.934360        25.4252 
 115   0.0000       0.938413        25.5355 
 116   0.0000       0.944722        25.7072 
 117   0.0000       0.959430        26.1074 
 118   0.0000       0.977088        26.5879 
 119   0.0000       0.980966        26.6934 
 120   0.0000       0.997074        27.1318 
 121   0.0000       1.033254        28.1163 
 122   0.0000       1.036909        28.2157 
 123   0.0000       1.042728        28.3741 
 124   0.0000       1.068560        29.0770 
 125   0.0000       1.090796        29.6821 
 126   0.0000       1.145602        31.1734 
 127   0.0000       1.161240        31.5990 
 128   0.0000       1.170678        31.8558 
 129   0.0000       1.176617        32.0174 
 130   0.0000       1.247565        33.9480 
 131   0.0000       1.292552        35.1721 
 132   0.0000       1.356185        36.9037 
 133   0.0000       1.378892        37.5216 
 134   0.0000       1.416913        38.5562 
 135   0.0000       1.438847        39.1530 
 136   0.0000       1.462253        39.7899 
 137   0.0000       1.476426        40.1756 
 138   0.0000       1.484582        40.3975 
 139   0.0000       1.519766        41.3549 
 140   0.0000       1.530275        41.6409 
 141   0.0000       1.550102        42.1804 
 142   0.0000       1.567023        42.6409 
 143   0.0000       1.587664        43.2025 
 144   0.0000       1.604640        43.6645 
 145   0.0000       1.631405        44.3928 
 146   0.0000       1.635746        44.5109 
 147   0.0000       1.639421        44.6109 
 148   0.0000       1.648494        44.8578 
 149   0.0000       1.659475        45.1566 
 150   0.0000       1.671631        45.4874 
 151   0.0000       1.703089        46.3434 
 152   0.0000       1.704201        46.3737 
 153   0.0000       1.713535        46.6277 
 154   0.0000       1.731733        47.1229 
 155   0.0000       1.767308        48.0909 
 156   0.0000       1.798165        48.9306 
 157   0.0000       1.800137        48.9842 
 158   0.0000       1.865711        50.7686 
 159   0.0000       1.876903        51.0731 
 160   0.0000       1.888315        51.3837 
 161   0.0000       1.888755        51.3956 
 162   0.0000       1.904973        51.8369 
 163   0.0000       1.930522        52.5322 
 164   0.0000       1.942749        52.8649 
 165   0.0000       1.951462        53.1020 
 166   0.0000       1.960472        53.3472 
 167   0.0000       1.977702        53.8160 
 168   0.0000       1.985935        54.0400 
 169   0.0000       2.043757        55.6135 
 170   0.0000       2.053168        55.8695 
 171   0.0000       2.094272        56.9880 
 172   0.0000       2.110960        57.4422 
 173   0.0000       2.132490        58.0280 
 174   0.0000       2.164886        58.9096 
 175   0.0000       2.179254        59.3005 
 176   0.0000       2.197538        59.7981 
 177   0.0000       2.206335        60.0374 
 178   0.0000       2.214140        60.2498 
 179   0.0000       2.246677        61.1352 
 180   0.0000       2.256330        61.3978 
 181   0.0000       2.286749        62.2256 
 182   0.0000       2.319695        63.1221 
 183   0.0000       2.354469        64.0684 
 184   0.0000       2.362783        64.2946 
 185   0.0000       2.377243        64.6881 
 186   0.0000       2.417521        65.7841 
 187   0.0000       2.452541        66.7370 
 188   0.0000       2.467530        67.1449 
 189   0.0000       2.622464        71.3609 
 190   0.0000       2.624812        71.4248 
 191   0.0000       2.667192        72.5780 
 192   0.0000       2.709844        73.7386 
 193   0.0000       2.756686        75.0132 
 194   0.0000       2.764009        75.2125 
 195   0.0000       2.769042        75.3495 
 196   0.0000       2.849984        77.5520 
 197   0.0000       2.897701        78.8504 
 198   0.0000       2.940755        80.0220 
 199   0.0000       3.006197        81.8028 
 200   0.0000       3.051778        83.0431 
 201   0.0000       3.084612        83.9366 
 202   0.0000       3.128438        85.1291 
 203   0.0000       3.202628        87.1479 
 204   0.0000       3.275697        89.1362 
 205   0.0000       3.365546        91.5812 
 206   0.0000       3.511135        95.5429 
 207   0.0000       3.550232        96.6067 
 208   0.0000       3.742112       101.8280 
 209   0.0000       3.772028       102.6421 
 210   0.0000       3.833882       104.3252 
 211   0.0000       3.923261       106.7574 
 212   0.0000       4.000561       108.8608 
 213   0.0000       4.266602       116.1001 
 214   0.0000       4.717877       128.3800 
Total SCF time: 0 days 0 hours 0 min 16 sec 

Maximum memory used throughout the entire SCF-calculation: 231.6 MB

-------------------------   --------------------
FINAL SINGLE POINT ENERGY      -305.594014632428
-------------------------   --------------------


                            ***************************************
                            *     ORCA property calculations      *
                            ***************************************

                                    ---------------------
                                    Active property flags
                                    ---------------------
   (+) Dipole Moment
   (+) Polarizability


------------------------------------------------------------------------------
                       ORCA ELECTRIC PROPERTIES CALCULATION
------------------------------------------------------------------------------

Dipole Moment Calculation                       ... on
Quadrupole Moment Calculation                   ... off
Polarizability Calculation                      ... Analytic (CP-SCF)
GBWName                                         ... phenol_efield_y_0.001.gbw
Electron density                                ... phenol_efield_y_0.001.scfp
The origin for moment calculation is the CENTER OF MASS  = ( 0.892295,  6.685629  0.017111)

-------------
DIPOLE MOMENT
-------------
                                X             Y             Z
Electronic contribution:     -1.75656       0.08262      -0.22370
Nuclear contribution   :      2.09690      -0.00184       0.79546
                        -----------------------------------------
Total Dipole Moment    :      0.34034       0.08078       0.57176
                        -----------------------------------------
Magnitude (a.u.)       :      0.67027
Magnitude (Debye)      :      1.70370



--------------------
Rotational spectrum 
--------------------
 
Rotational constants in cm-1:     0.187876     0.084795     0.058746 
Rotational constants in MHz :  5632.368735  2542.097443  1761.161239 

 Dipole components along the rotational axes: 
x,y,z [a.u.] :     0.333379    -0.080426     0.575897 
x,y,z [Debye]:     0.847383    -0.204427     1.463813 

 
Transforming and storing MO dipole integrals   ... done

                ... starting polarizability calculation

The origin for moment calculation is the CENTER OF MASS  = ( 0.892295,  6.685629  0.017111)
Opening the Dipole integral file               ... (phenol_efield_y_0.001.dmo.tmp) done
Reading Dipole-MO integrals                    ... done
Solving CP-SCF equations                       ... 

           ************************************************************
           *        Program running with 16 parallel MPI-processes    *
           *              working on a common directory               *
           ************************************************************

------------------------------------------------------------------------------
                           ORCA CP-SCF CALCULATION
------------------------------------------------------------------------------

Input orbitals are from        ... phenol_efield_y_0.001.gbw
Input Perturbation             ... phenol_efield_y_0.001.cpv.tmp
Wavefunction output            ... phenol_efield_y_0.001.cpu.tmp
Perturbation mode              ... Real perturbation (singlet)
Solver                         ... POPLE
Max. number of iterations      ... 64
Convergence tolerance          ... 3.000e-05
Integral handling              ... Direct
Number of perturbations        ... 3
Number of operators            ... 1
Orbital ranges used for CP-SCF:
 Operator 0:  Orbitals   0... 24  to  25...214
Variables per perturbation     ... 4750
Memory available               ... 1992.1 MB
Memory needed per perturbation ...   1.4 MB
Perturbations treated per batch... 3
Number of batches              ... 1
     CP-SCF ITERATION   0:   2.0036e+00 (   2.0 sec   0/  3 done)
     CP-SCF ITERATION   1:   4.1787e-01 (   2.1 sec   0/  3 done)
     CP-SCF ITERATION   2:   9.0314e-02 (   2.1 sec   0/  3 done)
     CP-SCF ITERATION   3:   3.9826e-02 (   2.1 sec   0/  3 done)
     CP-SCF ITERATION   4:   1.1416e-02 (   2.1 sec   0/  3 done)
     CP-SCF ITERATION   5:   4.2871e-03 (   2.1 sec   0/  3 done)
     CP-SCF ITERATION   6:   2.2393e-03 (   2.1 sec   0/  3 done)
     CP-SCF ITERATION   7:   9.0031e-04 (   2.1 sec   0/  3 done)
     CP-SCF ITERATION   8:   3.1554e-04 (   2.1 sec   0/  3 done)
     CP-SCF ITERATION   9:   8.5788e-05 (   2.1 sec   1/  3 done)
     CP-SCF ITERATION  10:   2.2278e-05 (   1.8 sec   3/  3 done)
                    *** THE CP-SCF HAS CONVERGED ***
done
Reading CP-SCF coefficients                    ... done
Doing the polarizability tensor                ... done
Cleaning up                                    ... done

-------------------------
THE POLARIZABILITY TENSOR
-------------------------

The raw cartesian tensor (atomic units):
   88.10705      0.00634     -1.43800  
    0.00634     81.88087     -0.02499  
   -1.43800     -0.02499     47.84864  
diagonalized tensor: 
   47.79733     81.88088     88.15836  

    0.03565     -0.00118     -0.99936  
    0.00073      1.00000     -0.00115  
    0.99936     -0.00068      0.03565  

Isotropic polarizability :  72.61219


Timings for individual modules:

Sum of individual times         ...       47.211 sec (=   0.787 min)
GTO integral calculation        ...        2.852 sec (=   0.048 min)   6.0 %
SCF iterations                  ...       18.949 sec (=   0.316 min)  40.1 %
Solution of CP-SCF eqns.        ...       25.410 sec (=   0.424 min)  53.8 %
                             ****ORCA TERMINATED NORMALLY****
TOTAL RUN TIME: 0 days 0 hours 0 minutes 50 seconds 470 msec
