
                                 *****************
                                 * O   R   C   A *
                                 *****************

                                            #,                                       
                                            ###                                      
                                            ####                                     
                                            #####                                    
                                            ######                                   
                                           ########,                                 
                                     ,,################,,,,,                         
                               ,,#################################,,                 
                          ,,##########################################,,             
                       ,#########################################, ''#####,          
                    ,#############################################,,   '####,        
                  ,##################################################,,,,####,       
                ,###########''''           ''''###############################       
              ,#####''   ,,,,##########,,,,          '''####'''          '####       
            ,##' ,,,,###########################,,,                        '##       
           ' ,,###''''                  '''############,,,                           
         ,,##''                                '''############,,,,        ,,,,,,###''
      ,#''                                            '''#######################'''  
     '                                                          ''''####''''         
             ,#######,   #######,   ,#######,      ##                                
            ,#'     '#,  ##    ##  ,#'     '#,    #''#        ######   ,####,        
            ##       ##  ##   ,#'  ##            #'  '#       #        #'  '#        
            ##       ##  #######   ##           ,######,      #####,   #    #        
            '#,     ,#'  ##    ##  '#,     ,#' ,#      #,         ##   #,  ,#        
             '#######'   ##     ##  '#######'  #'      '#     #####' # '####'        



                  #######################################################
                  #                        -***-                        #
                  #          Department of theory and spectroscopy      #
                  #    Directorship and core code : Frank Neese         #
                  #        Max Planck Institute fuer Kohlenforschung    #
                  #                Kaiser Wilhelm Platz 1               #
                  #                 D-45470 Muelheim/Ruhr               #
                  #                      Germany                        #
                  #                                                     #
                  #                  All rights reserved                #
                  #                        -***-                        #
                  #######################################################


                         Program Version 5.0.4 -  RELEASE  -


 With contributions from (in alphabetic order):
   Daniel Aravena         : Magnetic Suceptibility
   Michael Atanasov       : Ab Initio Ligand Field Theory (pilot matlab implementation)
   Alexander A. Auer      : GIAO ZORA, VPT2 properties, NMR spectrum
   Ute Becker             : Parallelization
   Giovanni Bistoni       : ED, misc. LED, open-shell LED, HFLD
   Martin Brehm           : Molecular dynamics
   Dmytro Bykov           : SCF Hessian
   Vijay G. Chilkuri      : MRCI spin determinant printing, contributions to CSF-ICE
   Dipayan Datta          : RHF DLPNO-CCSD density
   Achintya Kumar Dutta   : EOM-CC, STEOM-CC
   Dmitry Ganyushin       : Spin-Orbit,Spin-Spin,Magnetic field MRCI
   Miquel Garcia          : C-PCM and meta-GGA Hessian, CC/C-PCM, Gaussian charge scheme
   Yang Guo               : DLPNO-NEVPT2, F12-NEVPT2, CIM, IAO-localization
   Andreas Hansen         : Spin unrestricted coupled pair/coupled cluster methods
   Benjamin Helmich-Paris : MC-RPA, TRAH-SCF, COSX integrals
   Lee Huntington         : MR-EOM, pCC
   Robert Izsak           : Overlap fitted RIJCOSX, COSX-SCS-MP3, EOM
   Marcus Kettner         : VPT2
   Christian Kollmar      : KDIIS, OOCD, Brueckner-CCSD(T), CCSD density, CASPT2, CASPT2-K
   Simone Kossmann        : Meta GGA functionals, TD-DFT gradient, OOMP2, MP2 Hessian
   Martin Krupicka        : Initial AUTO-CI
   Lucas Lang             : DCDCAS
   Marvin Lechner         : AUTO-CI (C++ implementation), FIC-MRCC
   Dagmar Lenk            : GEPOL surface, SMD
   Dimitrios Liakos       : Extrapolation schemes; Compound Job, initial MDCI parallelization
   Dimitrios Manganas     : Further ROCIS development; embedding schemes
   Dimitrios Pantazis     : SARC Basis sets
   Anastasios Papadopoulos: AUTO-CI, single reference methods and gradients
   Taras Petrenko         : DFT Hessian,TD-DFT gradient, ASA, ECA, R-Raman, ABS, FL, XAS/XES, NRVS
   Peter Pinski           : DLPNO-MP2, DLPNO-MP2 Gradient
   Christoph Reimann      : Effective Core Potentials
   Marius Retegan         : Local ZFS, SOC
   Christoph Riplinger    : Optimizer, TS searches, QM/MM, DLPNO-CCSD(T), (RO)-DLPNO pert. Triples
   Tobias Risthaus        : Range-separated hybrids, TD-DFT gradient, RPA, STAB
   Michael Roemelt        : Original ROCIS implementation
   Masaaki Saitow         : Open-shell DLPNO-CCSD energy and density
   Barbara Sandhoefer     : DKH picture change effects
   Avijit Sen             : IP-ROCIS
   Kantharuban Sivalingam : CASSCF convergence, NEVPT2, FIC-MRCI
   Bernardo de Souza      : ESD, SOC TD-DFT
   Georgi Stoychev        : AutoAux, RI-MP2 NMR, DLPNO-MP2 response
   Willem Van den Heuvel  : Paramagnetic NMR
   Boris Wezisla          : Elementary symmetry handling
   Frank Wennmohs         : Technical directorship


 We gratefully acknowledge several colleagues who have allowed us to
 interface, adapt or use parts of their codes:
   Stefan Grimme, W. Hujo, H. Kruse, P. Pracht,  : VdW corrections, initial TS optimization,
                  C. Bannwarth, S. Ehlert          DFT functionals, gCP, sTDA/sTD-DF
   Ed Valeev, F. Pavosevic, A. Kumar             : LibInt (2-el integral package), F12 methods
   Garnet Chan, S. Sharma, J. Yang, R. Olivares  : DMRG
   Ulf Ekstrom                                   : XCFun DFT Library
   Mihaly Kallay                                 : mrcc  (arbitrary order and MRCC methods)
   Jiri Pittner, Ondrej Demel                    : Mk-CCSD
   Frank Weinhold                                : gennbo (NPA and NBO analysis)
   Christopher J. Cramer and Donald G. Truhlar   : smd solvation model
   Lars Goerigk                                  : TD-DFT with DH, B97 family of functionals
   V. Asgeirsson, H. Jonsson                     : NEB implementation
   FAccTs GmbH                                   : IRC, NEB, NEB-TS, DLPNO-Multilevel, CI-OPT
                                                   MM, QMMM, 2- and 3-layer-ONIOM, Crystal-QMMM,
                                                   LR-CPCM, SF, NACMEs, symmetry and pop. for TD-DFT,
                                                   nearIR, NL-DFT gradient (VV10), updates on ESD,
                                                   ML-optimized integration grids
   S Lehtola, MJT Oliveira, MAL Marques          : LibXC Library
   Liviu Ungur et al                             : ANISO software


 Your calculation uses the libint2 library for the computation of 2-el integrals
 For citations please refer to: http://libint.valeyev.net

 Your ORCA version has been built with support for libXC version: 5.1.0
 For citations please refer to: https://tddft.org/programs/libxc/

 This ORCA versions uses:
   CBLAS   interface :  Fast vector & matrix operations
   LAPACKE interface :  Fast linear algebra routines
   SCALAPACK package :  Parallel linear algebra routines
   Shared memory     :  Shared parallel matrices
   BLAS/LAPACK       :  OpenBLAS 0.3.15  USE64BITINT DYNAMIC_ARCH NO_AFFINITY SkylakeX SINGLE_THREADED
        Core in use  :  SkylakeX
   Copyright (c) 2011-2014, The OpenBLAS Project


================================================================================

----- Orbital basis set information -----
Your calculation utilizes the basis: aug-cc-pVDZ 
    H, B-Ne : Obtained from the ccRepo (grant-hill.group.shef.ac.uk/ccrepo) Feb. 2017
              R. A. Kendall, T. H. Dunning, Jr., R. J. Harrison, J. Chem. Phys. 96, 6796 (1992)
         He : Obtained from the ccRepo (grant-hill.group.shef.ac.uk/ccrepo) Feb. 2017
              D. E. Woon, T. H. Dunning, Jr., J. Chem. Phys. 100, 2975 (1994)
  Li-Be, Na : Obtained from the ccRepo (grant-hill.group.shef.ac.uk/ccrepo) Feb. 2017
              B. P. Prascher, D. E. Woon, K. A. Peterson, T. H. Dunning, Jr., A. K. Wilson, Theor. Chem. Acc. 128, 69 (2011)
         Mg : Obtained from the Peterson Research Group Website (tyr0.chem.wsu.edu/~kipeters) Feb. 2017
              B. P. Prascher, D. E. Woon, K. A. Peterson, T. H. Dunning, Jr., A. K. Wilson, Theor. Chem. Acc. 128, 69 (2011)
      Al-Ar : Obtained from the ccRepo (grant-hill.group.shef.ac.uk/ccrepo) Feb. 2017
              D. E. Woon, T. H. Dunning, Jr., J. Chem. Phys. 98, 1358 (1993)
      Sc-Zn : Obtained from the ccRepo (grant-hill.group.shef.ac.uk/ccrepo) Feb. 2017
              N. B. Balabanov, K. A. Peterson, J. Chem. Phys. 123, 064107 (2005)
              N. B. Balabanov, K. A. Peterson, J. Chem. Phys. 125, 074110 (2006)
      Ga-Kr : Obtained from the ccRepo (grant-hill.group.shef.ac.uk/ccrepo) Feb. 2017
              A. K. Wilson, D. E. Woon, K. A. Peterson, T. H. Dunning, Jr., J. Chem. Phys. 110, 7667 (1999)

================================================================================
                                        WARNINGS
                       Please study these warnings very carefully!
================================================================================


INFO   : the flag for use of the SHARK integral package has been found!

================================================================================
                                       INPUT FILE
================================================================================
NAME = phenol_efield_x_-0.001.inp
|  1> ! hf aug-cc-pVDZ
|  2> ! MiniPrint VeryTightSCF
|  3> %pal
|  4>  nprocs 16
|  5> end
|  6> %MaxCore 2000
|  7> %scf
|  8>  maxiter=200
|  9>  efield -0.001 , 0.0 , 0.0
| 10> end
| 11> %elprop
| 12>   polar 1
| 13> end
| 14> * xyz 0 1
| 15>  C                  0.26178012    2.32984290    0.00000000
| 16>  C                  1.65694012    2.32984290    0.00000000
| 17>  C                  2.35447812    3.53759390    0.00000000
| 18>  C                  1.65682412    4.74610290   -0.00119900
| 19>  C                  0.26199912    4.74602490   -0.00167800
| 20>  C                 -0.43560188    3.53781890   -0.00068200
| 21>  H                 -0.28797888    1.37752590    0.00045000
| 22>  H                  2.20644812    1.37732990    0.00131500
| 23>  H                  3.45415812    3.53767390    0.00063400
| 24>  H                  2.20702412    5.69824590   -0.00125800
| 25>  H                 -0.28812288    5.69830590   -0.00263100
| 26>  O                 -1.86560184    3.53805688   -0.00091608
| 27>  H                 -2.18650479    3.53625036    0.90385905
| 28> *
| 29> 
| 30>                          ****END OF INPUT****
================================================================================

                       ****************************
                       * Single Point Calculation *
                       ****************************

---------------------------------
CARTESIAN COORDINATES (ANGSTROEM)
---------------------------------
  C      0.261780    2.329843    0.000000
  C      1.656940    2.329843    0.000000
  C      2.354478    3.537594    0.000000
  C      1.656824    4.746103   -0.001199
  C      0.261999    4.746025   -0.001678
  C     -0.435602    3.537819   -0.000682
  H     -0.287979    1.377526    0.000450
  H      2.206448    1.377330    0.001315
  H      3.454158    3.537674    0.000634
  H      2.207024    5.698246   -0.001258
  H     -0.288123    5.698306   -0.002631
  O     -1.865602    3.538057   -0.000916
  H     -2.186505    3.536250    0.903859

----------------------------
CARTESIAN COORDINATES (A.U.)
----------------------------
  NO LB      ZA    FRAG     MASS         X           Y           Z
   0 C     6.0000    0    12.011    0.494693    4.402765    0.000000
   1 C     6.0000    0    12.011    3.131163    4.402765    0.000000
   2 C     6.0000    0    12.011    4.449319    6.685084    0.000000
   3 C     6.0000    0    12.011    3.130944    8.968835   -0.002266
   4 C     6.0000    0    12.011    0.495107    8.968687   -0.003171
   5 C     6.0000    0    12.011   -0.823168    6.685509   -0.001289
   6 H     1.0000    0     1.008   -0.544201    2.603147    0.000850
   7 H     1.0000    0     1.008    4.169583    2.602776    0.002485
   8 H     1.0000    0     1.008    6.527413    6.685235    0.001198
   9 H     1.0000    0     1.008    4.170671   10.768124   -0.002377
  10 H     1.0000    0     1.008   -0.544473   10.768238   -0.004972
  11 O     8.0000    0    15.999   -3.525477    6.685959   -0.001731
  12 H     1.0000    0     1.008   -4.131895    6.682545    1.708046



           ************************************************************
           *        Program running with 16 parallel MPI-processes    *
           *              working on a common directory               *
           ************************************************************
------------------------------------------------------------------------------
                   ___                                                        
                  /   \      - P O W E R E D   B Y -                         
                 /     \                                                     
                 |  |  |   _    _      __       _____    __    __             
                 |  |  |  | |  | |    /  \     |  _  \  |  |  /  |          
                  \  \/   | |  | |   /    \    | | | |  |  | /  /          
                 / \  \   | |__| |  /  /\  \   | |_| |  |  |/  /          
                |  |  |   |  __  | /  /__\  \  |    /   |      \           
                |  |  |   | |  | | |   __   |  |    \   |  |\   \          
                \     /   | |  | | |  |  |  |  | |\  \  |  | \   \       
                 \___/    |_|  |_| |__|  |__|  |_| \__\ |__|  \__/        
                                                                              
                      - O R C A' S   B I G   F R I E N D -                    
                                      &                                       
                       - I N T E G R A L  F E E D E R -                       
                                                                              
 v1 FN, 2020, v2 2021                                                         
------------------------------------------------------------------------------


Reading SHARK input file phenol_efield_x_-0.001.SHARKINP.tmp ... ok
----------------------
SHARK INTEGRAL PACKAGE
----------------------

Number of atoms                             ...     13
Number of basis functions                   ...    257
Number of shells                            ...    135
Maximum angular momentum                    ...      2
Integral batch strategy                     ... SHARK/LIBINT Hybrid
RI-J (if used) integral strategy            ... SPLIT-RIJ (Revised 2003 algorithm where possible)
Printlevel                                  ...      1
Contraction scheme used                     ... PARTIAL GENERAL contraction
Coulomb Range Separation                    ... NOT USED
Exchange Range Separation                   ... NOT USED
Finite Nucleus Model                        ... NOT USED
Auxiliary Coulomb fitting basis             ... NOT available
Auxiliary J/K fitting basis                 ... NOT available
Auxiliary Correlation fitting basis         ... NOT available
Auxiliary 'external' fitting basis          ... NOT available
Integral threshold                          ...     1.000000e-12
Primitive cut-off                           ...     1.000000e-14
Primitive pair pre-selection threshold      ...     1.000000e-14

Calculating pre-screening integrals         ... done (  0.0 sec) Dimension = 135
Calculating pre-screening integrals (ORCA)  ... done (  0.1 sec) Dimension = 93
Organizing shell pair data                  ... done (  0.0 sec)
Shell pair information
Total number of shell pairs                 ...      9180
Shell pairs after pre-screening             ...      8071
Total number of primitive shell pairs       ...     13080
Primitive shell pairs kept                  ...     10795
          la=0 lb=0:   2934 shell pairs
          la=1 lb=0:   2805 shell pairs
          la=1 lb=1:    559 shell pairs
          la=2 lb=0:   1207 shell pairs
          la=2 lb=1:    461 shell pairs
          la=2 lb=2:    105 shell pairs

Calculating one electron integrals          ... done (  0.0 sec)
Calculating Nuclear repulsion               ... done (  0.0 sec) ENN=    268.852435669254 Eh

SHARK setup successfully completed in   0.3 seconds

Maximum memory used throughout the entire GTOINT-calculation: 17.0 MB

An Electric Field will be added: -1.000e-03 0.000e+00 0.000e+00 au

  ... done adding electric field perturbation



           ************************************************************
           *        Program running with 16 parallel MPI-processes    *
           *              working on a common directory               *
           ************************************************************

Diagonalization of the overlap matrix:
Smallest eigenvalue                        ... 2.604e-06
Time for diagonalization                   ...    0.005 sec
Threshold for overlap eigenvalues          ... 1.000e-08
Number of eigenvalues below threshold      ... 0
Time for construction of square roots      ...    0.018 sec
Total time needed                          ...    0.024 sec

Time for model grid setup =    0.061 sec

Loading Hartree-Fock densities                     ... done
Calculating cut-offs                               ... done
Initializing the effective Hamiltonian             ... done
Setting up the integral package (SHARK)            ... done
Starting the Coulomb interaction                   ... done (   0.1 sec)
Reading the grid                                   ... done
Mapping shells                                     ... done
Starting the XC term evaluation                    ... done (   0.0 sec)
Transforming the Hamiltonian                       ... done (   0.0 sec)
Diagonalizing the Hamiltonian                      ... done (   0.0 sec)
Back transforming the eigenvectors                 ... done (   0.0 sec)
Now organizing SCF variables                       ... done
--------------
SCF ITERATIONS
--------------
ITER       Energy         Delta-E        Max-DP      RMS-DP      [F,P]     Damp
               ***  Starting incremental Fock matrix formation  ***
  0   -305.3376791805   0.000000000000 0.91475677  0.02213245  0.2194776 0.7000
  1   -305.4260860687  -0.088406888238 0.67404309  0.01653132  0.1374864 0.7000
                               ***Turning on DIIS***
  2   -305.4804733096  -0.054387240881 1.56003184  0.03816490  0.0802089 0.0000
  3   -305.0036743023   0.476799007284 0.03766954  0.00154857  0.0387467 0.0000
  4   -305.5462268685  -0.542552566228 0.05985691  0.00109235  0.0051688 0.0000
                      *** Initiating the SOSCF procedure ***
                           *** Shutting down DIIS ***
                      *** Re-Reading the Fockian *** 
                      *** Removing any level shift *** 
ITER      Energy       Delta-E        Grad      Rot      Max-DP    RMS-DP
  5   -305.57838950  -0.0321626291  0.001113  0.001113  0.017980  0.000374
               *** Restarting incremental Fock matrix formation ***
  6   -305.59366697  -0.0152774748  0.000368  0.000830  0.002047  0.000065
  7   -305.59367571  -0.0000087346  0.000218  0.000518  0.003635  0.000079
  8   -305.59367820  -0.0000024953  0.000064  0.000173  0.000895  0.000025
  9   -305.59367843  -0.0000002249  0.000045  0.000239  0.000623  0.000015
 10   -305.59367853  -0.0000001018  0.000009  0.000022  0.000379  0.000009
 11   -305.59367854  -0.0000000078  0.000007  0.000018  0.000097  0.000002
 12   -305.59367854  -0.0000000015  0.000002  0.000004  0.000063  0.000001
                  ***Gradient check signals convergence***
              ***Rediagonalizing the Fockian in SOSCF/NRSCF***

               *****************************************************
               *                     SUCCESS                       *
               *           SCF CONVERGED AFTER  13 CYCLES          *
               *****************************************************

Total Energy       :         -305.59367854 Eh           -8315.62675 eV
  Last Energy change         ...   -1.3711e-10  Tolerance :   1.0000e-09
  Last MAX-Density change    ...    1.9334e-05  Tolerance :   1.0000e-08
             **** THE GBW FILE WAS UPDATED (phenol_efield_x_-0.001.gbw) ****
             **** DENSITY phenol_efield_x_-0.001.scfp WAS UPDATED ****
             **** ENERGY FILE WAS UPDATED (phenol_efield_x_-0.001.en.tmp) ****
             **** THE GBW FILE WAS UPDATED (phenol_efield_x_-0.001.gbw) ****
             **** DENSITY phenol_efield_x_-0.001.scfp WAS UPDATED ****
----------------
ORBITAL ENERGIES
----------------

  NO   OCC          E(Eh)            E(eV) 
   0   2.0000     -20.586214      -560.1794 
   1   2.0000     -11.307519      -307.6932 
   2   2.0000     -11.252660      -306.2004 
   3   2.0000     -11.252540      -306.1972 
   4   2.0000     -11.247089      -306.0488 
   5   2.0000     -11.247039      -306.0475 
   6   2.0000     -11.246873      -306.0430 
   7   2.0000      -1.374658       -37.4064 
   8   2.0000      -1.154440       -31.4139 
   9   2.0000      -1.024157       -27.8687 
  10   2.0000      -1.010711       -27.5029 
  11   2.0000      -0.837257       -22.7829 
  12   2.0000      -0.825037       -22.4504 
  13   2.0000      -0.724814       -19.7232 
  14   2.0000      -0.677590       -18.4382 
  15   2.0000      -0.647894       -17.6301 
  16   2.0000      -0.628461       -17.1013 
  17   2.0000      -0.591623       -16.0989 
  18   2.0000      -0.588264       -16.0075 
  19   2.0000      -0.521659       -14.1950 
  20   2.0000      -0.516805       -14.0630 
  21   2.0000      -0.499193       -13.5837 
  22   2.0000      -0.475703       -12.9445 
  23   2.0000      -0.344433        -9.3725 
  24   2.0000      -0.335472        -9.1287 
  25   0.0000       0.030192         0.8216 
  26   0.0000       0.038990         1.0610 
  27   0.0000       0.042008         1.1431 
  28   0.0000       0.054050         1.4708 
  29   0.0000       0.059155         1.6097 
  30   0.0000       0.072160         1.9636 
  31   0.0000       0.101529         2.7628 
  32   0.0000       0.107918         2.9366 
  33   0.0000       0.116355         3.1662 
  34   0.0000       0.127623         3.4728 
  35   0.0000       0.137138         3.7317 
  36   0.0000       0.139831         3.8050 
  37   0.0000       0.141809         3.8588 
  38   0.0000       0.143872         3.9150 
  39   0.0000       0.145746         3.9659 
  40   0.0000       0.154146         4.1945 
  41   0.0000       0.157463         4.2848 
  42   0.0000       0.161130         4.3846 
  43   0.0000       0.169105         4.6016 
  44   0.0000       0.169565         4.6141 
  45   0.0000       0.178524         4.8579 
  46   0.0000       0.187133         5.0922 
  47   0.0000       0.187323         5.0973 
  48   0.0000       0.190761         5.1909 
  49   0.0000       0.194112         5.2821 
  50   0.0000       0.194806         5.3009 
  51   0.0000       0.234988         6.3943 
  52   0.0000       0.259745         7.0680 
  53   0.0000       0.276551         7.5253 
  54   0.0000       0.292445         7.9578 
  55   0.0000       0.297118         8.0850 
  56   0.0000       0.303909         8.2698 
  57   0.0000       0.304627         8.2893 
  58   0.0000       0.320501         8.7213 
  59   0.0000       0.346824         9.4376 
  60   0.0000       0.349374         9.5070 
  61   0.0000       0.352912         9.6032 
  62   0.0000       0.354732         9.6527 
  63   0.0000       0.365335         9.9413 
  64   0.0000       0.371688        10.1142 
  65   0.0000       0.373404        10.1609 
  66   0.0000       0.376056        10.2330 
  67   0.0000       0.399379        10.8677 
  68   0.0000       0.401736        10.9318 
  69   0.0000       0.411354        11.1935 
  70   0.0000       0.414316        11.2741 
  71   0.0000       0.431230        11.7344 
  72   0.0000       0.433801        11.8043 
  73   0.0000       0.442166        12.0319 
  74   0.0000       0.466601        12.6969 
  75   0.0000       0.485569        13.2130 
  76   0.0000       0.498354        13.5609 
  77   0.0000       0.500666        13.6238 
  78   0.0000       0.519477        14.1357 
  79   0.0000       0.526088        14.3156 
  80   0.0000       0.532132        14.4800 
  81   0.0000       0.555490        15.1157 
  82   0.0000       0.576914        15.6986 
  83   0.0000       0.580025        15.7833 
  84   0.0000       0.588552        16.0153 
  85   0.0000       0.595989        16.2177 
  86   0.0000       0.605956        16.4889 
  87   0.0000       0.616381        16.7726 
  88   0.0000       0.631834        17.1931 
  89   0.0000       0.648094        17.6355 
  90   0.0000       0.654134        17.7999 
  91   0.0000       0.667737        18.1700 
  92   0.0000       0.672230        18.2923 
  93   0.0000       0.683602        18.6018 
  94   0.0000       0.687064        18.6960 
  95   0.0000       0.687746        18.7145 
  96   0.0000       0.704508        19.1706 
  97   0.0000       0.723927        19.6990 
  98   0.0000       0.740738        20.1565 
  99   0.0000       0.751901        20.4603 
 100   0.0000       0.752411        20.4741 
 101   0.0000       0.761914        20.7327 
 102   0.0000       0.762223        20.7411 
 103   0.0000       0.770086        20.9551 
 104   0.0000       0.800346        21.7785 
 105   0.0000       0.840922        22.8826 
 106   0.0000       0.856910        23.3177 
 107   0.0000       0.865882        23.5619 
 108   0.0000       0.866852        23.5882 
 109   0.0000       0.874214        23.7886 
 110   0.0000       0.913766        24.8648 
 111   0.0000       0.917730        24.9727 
 112   0.0000       0.922814        25.1110 
 113   0.0000       0.931711        25.3532 
 114   0.0000       0.934461        25.4280 
 115   0.0000       0.936715        25.4893 
 116   0.0000       0.944221        25.6936 
 117   0.0000       0.958898        26.0929 
 118   0.0000       0.976128        26.5618 
 119   0.0000       0.980188        26.6723 
 120   0.0000       0.996339        27.1117 
 121   0.0000       1.033304        28.1176 
 122   0.0000       1.038500        28.2590 
 123   0.0000       1.042068        28.3561 
 124   0.0000       1.067882        29.0585 
 125   0.0000       1.090261        29.6675 
 126   0.0000       1.146446        31.1964 
 127   0.0000       1.159478        31.5510 
 128   0.0000       1.170364        31.8472 
 129   0.0000       1.176176        32.0054 
 130   0.0000       1.249769        34.0080 
 131   0.0000       1.293332        35.1934 
 132   0.0000       1.357555        36.9409 
 133   0.0000       1.378730        37.5172 
 134   0.0000       1.416772        38.5523 
 135   0.0000       1.439385        39.1676 
 136   0.0000       1.462017        39.7835 
 137   0.0000       1.475963        40.1630 
 138   0.0000       1.483805        40.3764 
 139   0.0000       1.519704        41.3532 
 140   0.0000       1.529019        41.6067 
 141   0.0000       1.549499        42.1640 
 142   0.0000       1.565993        42.6128 
 143   0.0000       1.587035        43.1854 
 144   0.0000       1.604144        43.6510 
 145   0.0000       1.630377        44.3648 
 146   0.0000       1.634500        44.4770 
 147   0.0000       1.638179        44.5771 
 148   0.0000       1.647828        44.8397 
 149   0.0000       1.659726        45.1634 
 150   0.0000       1.671782        45.4915 
 151   0.0000       1.702774        46.3348 
 152   0.0000       1.703243        46.3476 
 153   0.0000       1.713080        46.6153 
 154   0.0000       1.731213        47.1087 
 155   0.0000       1.766976        48.0819 
 156   0.0000       1.798126        48.9295 
 157   0.0000       1.799416        48.9646 
 158   0.0000       1.865974        50.7757 
 159   0.0000       1.876751        51.0690 
 160   0.0000       1.887597        51.3641 
 161   0.0000       1.888176        51.3799 
 162   0.0000       1.904707        51.8297 
 163   0.0000       1.929602        52.5071 
 164   0.0000       1.942612        52.8612 
 165   0.0000       1.950068        53.0641 
 166   0.0000       1.959585        53.3230 
 167   0.0000       1.976819        53.7920 
 168   0.0000       1.985628        54.0317 
 169   0.0000       2.043438        55.6048 
 170   0.0000       2.053093        55.8675 
 171   0.0000       2.092247        56.9329 
 172   0.0000       2.110208        57.4217 
 173   0.0000       2.132929        58.0400 
 174   0.0000       2.165071        58.9146 
 175   0.0000       2.178881        59.2904 
 176   0.0000       2.197266        59.7906 
 177   0.0000       2.205467        60.0138 
 178   0.0000       2.213459        60.2313 
 179   0.0000       2.246199        61.1222 
 180   0.0000       2.256005        61.3890 
 181   0.0000       2.286447        62.2174 
 182   0.0000       2.318214        63.0818 
 183   0.0000       2.353749        64.0488 
 184   0.0000       2.361765        64.2669 
 185   0.0000       2.377115        64.6846 
 186   0.0000       2.416969        65.7691 
 187   0.0000       2.452270        66.7296 
 188   0.0000       2.468145        67.1616 
 189   0.0000       2.621819        71.3433 
 190   0.0000       2.626882        71.4811 
 191   0.0000       2.666851        72.5687 
 192   0.0000       2.709692        73.7345 
 193   0.0000       2.755739        74.9875 
 194   0.0000       2.762389        75.1684 
 195   0.0000       2.767591        75.3100 
 196   0.0000       2.850717        77.5719 
 197   0.0000       2.897326        78.8403 
 198   0.0000       2.939941        79.9999 
 199   0.0000       3.006155        81.8016 
 200   0.0000       3.051505        83.0357 
 201   0.0000       3.083702        83.9118 
 202   0.0000       3.127304        85.0983 
 203   0.0000       3.201895        87.1280 
 204   0.0000       3.274599        89.1064 
 205   0.0000       3.367354        91.6304 
 206   0.0000       3.511531        95.5536 
 207   0.0000       3.549429        96.5849 
 208   0.0000       3.742596       101.8412 
 209   0.0000       3.774410       102.7069 
 210   0.0000       3.835136       104.3594 
 211   0.0000       3.925370       106.8147 
 212   0.0000       4.001916       108.8977 
 213   0.0000       4.268978       116.1648 
 214   0.0000       4.717246       128.3628 
Total SCF time: 0 days 0 hours 0 min 15 sec 

Maximum memory used throughout the entire SCF-calculation: 231.6 MB

-------------------------   --------------------
FINAL SINGLE POINT ENERGY      -305.593678538548
-------------------------   --------------------


                            ***************************************
                            *     ORCA property calculations      *
                            ***************************************

                                    ---------------------
                                    Active property flags
                                    ---------------------
   (+) Dipole Moment
   (+) Polarizability


------------------------------------------------------------------------------
                       ORCA ELECTRIC PROPERTIES CALCULATION
------------------------------------------------------------------------------

Dipole Moment Calculation                       ... on
Quadrupole Moment Calculation                   ... off
Polarizability Calculation                      ... Analytic (CP-SCF)
GBWName                                         ... phenol_efield_x_-0.001.gbw
Electron density                                ... phenol_efield_x_-0.001.scfp
The origin for moment calculation is the CENTER OF MASS  = ( 0.892295,  6.685629  0.017111)

-------------
DIPOLE MOMENT
-------------
                                X             Y             Z
Electronic contribution:     -1.84474       0.00074      -0.22224
Nuclear contribution   :      2.09690      -0.00184       0.79546
                        -----------------------------------------
Total Dipole Moment    :      0.25216      -0.00110       0.57322
                        -----------------------------------------
Magnitude (a.u.)       :      0.62624
Magnitude (Debye)      :      1.59177



--------------------
Rotational spectrum 
--------------------
 
Rotational constants in cm-1:     0.187876     0.084795     0.058746 
Rotational constants in MHz :  5632.368735  2542.097443  1761.161239 

 Dipole components along the rotational axes: 
x,y,z [a.u.] :     0.245197     0.001458     0.576237 
x,y,z [Debye]:     0.623241     0.003706     1.464678 

 
Transforming and storing MO dipole integrals   ... done

                ... starting polarizability calculation

The origin for moment calculation is the CENTER OF MASS  = ( 0.892295,  6.685629  0.017111)
Opening the Dipole integral file               ... (phenol_efield_x_-0.001.dmo.tmp) done
Reading Dipole-MO integrals                    ... done
Solving CP-SCF equations                       ... 

           ************************************************************
           *        Program running with 16 parallel MPI-processes    *
           *              working on a common directory               *
           ************************************************************

------------------------------------------------------------------------------
                           ORCA CP-SCF CALCULATION
------------------------------------------------------------------------------

Input orbitals are from        ... phenol_efield_x_-0.001.gbw
Input Perturbation             ... phenol_efield_x_-0.001.cpv.tmp
Wavefunction output            ... phenol_efield_x_-0.001.cpu.tmp
Perturbation mode              ... Real perturbation (singlet)
Solver                         ... POPLE
Max. number of iterations      ... 64
Convergence tolerance          ... 3.000e-05
Integral handling              ... Direct
Number of perturbations        ... 3
Number of operators            ... 1
Orbital ranges used for CP-SCF:
 Operator 0:  Orbitals   0... 24  to  25...214
Variables per perturbation     ... 4750
Memory available               ... 1992.1 MB
Memory needed per perturbation ...   1.4 MB
Perturbations treated per batch... 3
Number of batches              ... 1
     CP-SCF ITERATION   0:   2.0032e+00 (   2.1 sec   0/  3 done)
     CP-SCF ITERATION   1:   4.1889e-01 (   2.1 sec   0/  3 done)
     CP-SCF ITERATION   2:   9.0888e-02 (   2.1 sec   0/  3 done)
     CP-SCF ITERATION   3:   4.0207e-02 (   2.1 sec   0/  3 done)
     CP-SCF ITERATION   4:   1.1596e-02 (   2.1 sec   0/  3 done)
     CP-SCF ITERATION   5:   4.4106e-03 (   2.1 sec   0/  3 done)
     CP-SCF ITERATION   6:   2.2902e-03 (   2.1 sec   0/  3 done)
     CP-SCF ITERATION   7:   9.1210e-04 (   2.1 sec   0/  3 done)
     CP-SCF ITERATION   8:   3.1908e-04 (   2.1 sec   0/  3 done)
     CP-SCF ITERATION   9:   8.6176e-05 (   2.1 sec   2/  3 done)
     CP-SCF ITERATION  10:   2.2536e-05 (   1.5 sec   3/  3 done)
                    *** THE CP-SCF HAS CONVERGED ***
done
Reading CP-SCF coefficients                    ... done
Doing the polarizability tensor                ... done
Cleaning up                                    ... done

-------------------------
THE POLARIZABILITY TENSOR
-------------------------

The raw cartesian tensor (atomic units):
   88.23137      0.00305     -1.43415  
    0.00305     81.87438     -0.02324  
   -1.43415     -0.02324     47.88498  
diagonalized tensor: 
   47.83405     81.87439     88.28229  

    0.03548     -0.00063     -0.99937  
    0.00068      1.00000     -0.00060  
    0.99937     -0.00066      0.03548  

Isotropic polarizability :  72.66358


Timings for individual modules:

Sum of individual times         ...       46.285 sec (=   0.771 min)
GTO integral calculation        ...        2.895 sec (=   0.048 min)   6.3 %
SCF iterations                  ...       18.188 sec (=   0.303 min)  39.3 %
Solution of CP-SCF eqns.        ...       25.201 sec (=   0.420 min)  54.4 %
                             ****ORCA TERMINATED NORMALLY****
TOTAL RUN TIME: 0 days 0 hours 0 minutes 49 seconds 656 msec
