
                                 *****************
                                 * O   R   C   A *
                                 *****************

                                            #,                                       
                                            ###                                      
                                            ####                                     
                                            #####                                    
                                            ######                                   
                                           ########,                                 
                                     ,,################,,,,,                         
                               ,,#################################,,                 
                          ,,##########################################,,             
                       ,#########################################, ''#####,          
                    ,#############################################,,   '####,        
                  ,##################################################,,,,####,       
                ,###########''''           ''''###############################       
              ,#####''   ,,,,##########,,,,          '''####'''          '####       
            ,##' ,,,,###########################,,,                        '##       
           ' ,,###''''                  '''############,,,                           
         ,,##''                                '''############,,,,        ,,,,,,###''
      ,#''                                            '''#######################'''  
     '                                                          ''''####''''         
             ,#######,   #######,   ,#######,      ##                                
            ,#'     '#,  ##    ##  ,#'     '#,    #''#        ######   ,####,        
            ##       ##  ##   ,#'  ##            #'  '#       #        #'  '#        
            ##       ##  #######   ##           ,######,      #####,   #    #        
            '#,     ,#'  ##    ##  '#,     ,#' ,#      #,         ##   #,  ,#        
             '#######'   ##     ##  '#######'  #'      '#     #####' # '####'        



                  #######################################################
                  #                        -***-                        #
                  #          Department of theory and spectroscopy      #
                  #    Directorship and core code : Frank Neese         #
                  #        Max Planck Institute fuer Kohlenforschung    #
                  #                Kaiser Wilhelm Platz 1               #
                  #                 D-45470 Muelheim/Ruhr               #
                  #                      Germany                        #
                  #                                                     #
                  #                  All rights reserved                #
                  #                        -***-                        #
                  #######################################################


                         Program Version 5.0.4 -  RELEASE  -


 With contributions from (in alphabetic order):
   Daniel Aravena         : Magnetic Suceptibility
   Michael Atanasov       : Ab Initio Ligand Field Theory (pilot matlab implementation)
   Alexander A. Auer      : GIAO ZORA, VPT2 properties, NMR spectrum
   Ute Becker             : Parallelization
   Giovanni Bistoni       : ED, misc. LED, open-shell LED, HFLD
   Martin Brehm           : Molecular dynamics
   Dmytro Bykov           : SCF Hessian
   Vijay G. Chilkuri      : MRCI spin determinant printing, contributions to CSF-ICE
   Dipayan Datta          : RHF DLPNO-CCSD density
   Achintya Kumar Dutta   : EOM-CC, STEOM-CC
   Dmitry Ganyushin       : Spin-Orbit,Spin-Spin,Magnetic field MRCI
   Miquel Garcia          : C-PCM and meta-GGA Hessian, CC/C-PCM, Gaussian charge scheme
   Yang Guo               : DLPNO-NEVPT2, F12-NEVPT2, CIM, IAO-localization
   Andreas Hansen         : Spin unrestricted coupled pair/coupled cluster methods
   Benjamin Helmich-Paris : MC-RPA, TRAH-SCF, COSX integrals
   Lee Huntington         : MR-EOM, pCC
   Robert Izsak           : Overlap fitted RIJCOSX, COSX-SCS-MP3, EOM
   Marcus Kettner         : VPT2
   Christian Kollmar      : KDIIS, OOCD, Brueckner-CCSD(T), CCSD density, CASPT2, CASPT2-K
   Simone Kossmann        : Meta GGA functionals, TD-DFT gradient, OOMP2, MP2 Hessian
   Martin Krupicka        : Initial AUTO-CI
   Lucas Lang             : DCDCAS
   Marvin Lechner         : AUTO-CI (C++ implementation), FIC-MRCC
   Dagmar Lenk            : GEPOL surface, SMD
   Dimitrios Liakos       : Extrapolation schemes; Compound Job, initial MDCI parallelization
   Dimitrios Manganas     : Further ROCIS development; embedding schemes
   Dimitrios Pantazis     : SARC Basis sets
   Anastasios Papadopoulos: AUTO-CI, single reference methods and gradients
   Taras Petrenko         : DFT Hessian,TD-DFT gradient, ASA, ECA, R-Raman, ABS, FL, XAS/XES, NRVS
   Peter Pinski           : DLPNO-MP2, DLPNO-MP2 Gradient
   Christoph Reimann      : Effective Core Potentials
   Marius Retegan         : Local ZFS, SOC
   Christoph Riplinger    : Optimizer, TS searches, QM/MM, DLPNO-CCSD(T), (RO)-DLPNO pert. Triples
   Tobias Risthaus        : Range-separated hybrids, TD-DFT gradient, RPA, STAB
   Michael Roemelt        : Original ROCIS implementation
   Masaaki Saitow         : Open-shell DLPNO-CCSD energy and density
   Barbara Sandhoefer     : DKH picture change effects
   Avijit Sen             : IP-ROCIS
   Kantharuban Sivalingam : CASSCF convergence, NEVPT2, FIC-MRCI
   Bernardo de Souza      : ESD, SOC TD-DFT
   Georgi Stoychev        : AutoAux, RI-MP2 NMR, DLPNO-MP2 response
   Willem Van den Heuvel  : Paramagnetic NMR
   Boris Wezisla          : Elementary symmetry handling
   Frank Wennmohs         : Technical directorship


 We gratefully acknowledge several colleagues who have allowed us to
 interface, adapt or use parts of their codes:
   Stefan Grimme, W. Hujo, H. Kruse, P. Pracht,  : VdW corrections, initial TS optimization,
                  C. Bannwarth, S. Ehlert          DFT functionals, gCP, sTDA/sTD-DF
   Ed Valeev, F. Pavosevic, A. Kumar             : LibInt (2-el integral package), F12 methods
   Garnet Chan, S. Sharma, J. Yang, R. Olivares  : DMRG
   Ulf Ekstrom                                   : XCFun DFT Library
   Mihaly Kallay                                 : mrcc  (arbitrary order and MRCC methods)
   Jiri Pittner, Ondrej Demel                    : Mk-CCSD
   Frank Weinhold                                : gennbo (NPA and NBO analysis)
   Christopher J. Cramer and Donald G. Truhlar   : smd solvation model
   Lars Goerigk                                  : TD-DFT with DH, B97 family of functionals
   V. Asgeirsson, H. Jonsson                     : NEB implementation
   FAccTs GmbH                                   : IRC, NEB, NEB-TS, DLPNO-Multilevel, CI-OPT
                                                   MM, QMMM, 2- and 3-layer-ONIOM, Crystal-QMMM,
                                                   LR-CPCM, SF, NACMEs, symmetry and pop. for TD-DFT,
                                                   nearIR, NL-DFT gradient (VV10), updates on ESD,
                                                   ML-optimized integration grids
   S Lehtola, MJT Oliveira, MAL Marques          : LibXC Library
   Liviu Ungur et al                             : ANISO software


 Your calculation uses the libint2 library for the computation of 2-el integrals
 For citations please refer to: http://libint.valeyev.net

 Your ORCA version has been built with support for libXC version: 5.1.0
 For citations please refer to: https://tddft.org/programs/libxc/

 This ORCA versions uses:
   CBLAS   interface :  Fast vector & matrix operations
   LAPACKE interface :  Fast linear algebra routines
   SCALAPACK package :  Parallel linear algebra routines
   Shared memory     :  Shared parallel matrices
   BLAS/LAPACK       :  OpenBLAS 0.3.15  USE64BITINT DYNAMIC_ARCH NO_AFFINITY SkylakeX SINGLE_THREADED
        Core in use  :  SkylakeX
   Copyright (c) 2011-2014, The OpenBLAS Project


================================================================================

----- Orbital basis set information -----
Your calculation utilizes the basis: aug-cc-pVDZ 
    H, B-Ne : Obtained from the ccRepo (grant-hill.group.shef.ac.uk/ccrepo) Feb. 2017
              R. A. Kendall, T. H. Dunning, Jr., R. J. Harrison, J. Chem. Phys. 96, 6796 (1992)
         He : Obtained from the ccRepo (grant-hill.group.shef.ac.uk/ccrepo) Feb. 2017
              D. E. Woon, T. H. Dunning, Jr., J. Chem. Phys. 100, 2975 (1994)
  Li-Be, Na : Obtained from the ccRepo (grant-hill.group.shef.ac.uk/ccrepo) Feb. 2017
              B. P. Prascher, D. E. Woon, K. A. Peterson, T. H. Dunning, Jr., A. K. Wilson, Theor. Chem. Acc. 128, 69 (2011)
         Mg : Obtained from the Peterson Research Group Website (tyr0.chem.wsu.edu/~kipeters) Feb. 2017
              B. P. Prascher, D. E. Woon, K. A. Peterson, T. H. Dunning, Jr., A. K. Wilson, Theor. Chem. Acc. 128, 69 (2011)
      Al-Ar : Obtained from the ccRepo (grant-hill.group.shef.ac.uk/ccrepo) Feb. 2017
              D. E. Woon, T. H. Dunning, Jr., J. Chem. Phys. 98, 1358 (1993)
      Sc-Zn : Obtained from the ccRepo (grant-hill.group.shef.ac.uk/ccrepo) Feb. 2017
              N. B. Balabanov, K. A. Peterson, J. Chem. Phys. 123, 064107 (2005)
              N. B. Balabanov, K. A. Peterson, J. Chem. Phys. 125, 074110 (2006)
      Ga-Kr : Obtained from the ccRepo (grant-hill.group.shef.ac.uk/ccrepo) Feb. 2017
              A. K. Wilson, D. E. Woon, K. A. Peterson, T. H. Dunning, Jr., J. Chem. Phys. 110, 7667 (1999)

================================================================================
                                        WARNINGS
                       Please study these warnings very carefully!
================================================================================


INFO   : the flag for use of the SHARK integral package has been found!

================================================================================
                                       INPUT FILE
================================================================================
NAME = phenol_efield_z_0.0005.inp
|  1> ! hf aug-cc-pVDZ
|  2> ! MiniPrint VeryTightSCF
|  3> %pal
|  4>  nprocs 16
|  5> end
|  6> %MaxCore 2000
|  7> %scf
|  8>  maxiter=200
|  9>  efield 0.0 , 0.0 , 0.0005
| 10> end
| 11> %elprop
| 12>   polar 1
| 13> end
| 14> * xyz 0 1
| 15>  C                  0.26178012    2.32984290    0.00000000
| 16>  C                  1.65694012    2.32984290    0.00000000
| 17>  C                  2.35447812    3.53759390    0.00000000
| 18>  C                  1.65682412    4.74610290   -0.00119900
| 19>  C                  0.26199912    4.74602490   -0.00167800
| 20>  C                 -0.43560188    3.53781890   -0.00068200
| 21>  H                 -0.28797888    1.37752590    0.00045000
| 22>  H                  2.20644812    1.37732990    0.00131500
| 23>  H                  3.45415812    3.53767390    0.00063400
| 24>  H                  2.20702412    5.69824590   -0.00125800
| 25>  H                 -0.28812288    5.69830590   -0.00263100
| 26>  O                 -1.86560184    3.53805688   -0.00091608
| 27>  H                 -2.18650479    3.53625036    0.90385905
| 28> *
| 29> 
| 30>                          ****END OF INPUT****
================================================================================

                       ****************************
                       * Single Point Calculation *
                       ****************************

---------------------------------
CARTESIAN COORDINATES (ANGSTROEM)
---------------------------------
  C      0.261780    2.329843    0.000000
  C      1.656940    2.329843    0.000000
  C      2.354478    3.537594    0.000000
  C      1.656824    4.746103   -0.001199
  C      0.261999    4.746025   -0.001678
  C     -0.435602    3.537819   -0.000682
  H     -0.287979    1.377526    0.000450
  H      2.206448    1.377330    0.001315
  H      3.454158    3.537674    0.000634
  H      2.207024    5.698246   -0.001258
  H     -0.288123    5.698306   -0.002631
  O     -1.865602    3.538057   -0.000916
  H     -2.186505    3.536250    0.903859

----------------------------
CARTESIAN COORDINATES (A.U.)
----------------------------
  NO LB      ZA    FRAG     MASS         X           Y           Z
   0 C     6.0000    0    12.011    0.494693    4.402765    0.000000
   1 C     6.0000    0    12.011    3.131163    4.402765    0.000000
   2 C     6.0000    0    12.011    4.449319    6.685084    0.000000
   3 C     6.0000    0    12.011    3.130944    8.968835   -0.002266
   4 C     6.0000    0    12.011    0.495107    8.968687   -0.003171
   5 C     6.0000    0    12.011   -0.823168    6.685509   -0.001289
   6 H     1.0000    0     1.008   -0.544201    2.603147    0.000850
   7 H     1.0000    0     1.008    4.169583    2.602776    0.002485
   8 H     1.0000    0     1.008    6.527413    6.685235    0.001198
   9 H     1.0000    0     1.008    4.170671   10.768124   -0.002377
  10 H     1.0000    0     1.008   -0.544473   10.768238   -0.004972
  11 O     8.0000    0    15.999   -3.525477    6.685959   -0.001731
  12 H     1.0000    0     1.008   -4.131895    6.682545    1.708046



           ************************************************************
           *        Program running with 16 parallel MPI-processes    *
           *              working on a common directory               *
           ************************************************************
------------------------------------------------------------------------------
                   ___                                                        
                  /   \      - P O W E R E D   B Y -                         
                 /     \                                                     
                 |  |  |   _    _      __       _____    __    __             
                 |  |  |  | |  | |    /  \     |  _  \  |  |  /  |          
                  \  \/   | |  | |   /    \    | | | |  |  | /  /          
                 / \  \   | |__| |  /  /\  \   | |_| |  |  |/  /          
                |  |  |   |  __  | /  /__\  \  |    /   |      \           
                |  |  |   | |  | | |   __   |  |    \   |  |\   \          
                \     /   | |  | | |  |  |  |  | |\  \  |  | \   \       
                 \___/    |_|  |_| |__|  |__|  |_| \__\ |__|  \__/        
                                                                              
                      - O R C A' S   B I G   F R I E N D -                    
                                      &                                       
                       - I N T E G R A L  F E E D E R -                       
                                                                              
 v1 FN, 2020, v2 2021                                                         
------------------------------------------------------------------------------


Reading SHARK input file phenol_efield_z_0.0005.SHARKINP.tmp ... ok
----------------------
SHARK INTEGRAL PACKAGE
----------------------

Number of atoms                             ...     13
Number of basis functions                   ...    257
Number of shells                            ...    135
Maximum angular momentum                    ...      2
Integral batch strategy                     ... SHARK/LIBINT Hybrid
RI-J (if used) integral strategy            ... SPLIT-RIJ (Revised 2003 algorithm where possible)
Printlevel                                  ...      1
Contraction scheme used                     ... PARTIAL GENERAL contraction
Coulomb Range Separation                    ... NOT USED
Exchange Range Separation                   ... NOT USED
Finite Nucleus Model                        ... NOT USED
Auxiliary Coulomb fitting basis             ... NOT available
Auxiliary J/K fitting basis                 ... NOT available
Auxiliary Correlation fitting basis         ... NOT available
Auxiliary 'external' fitting basis          ... NOT available
Integral threshold                          ...     1.000000e-12
Primitive cut-off                           ...     1.000000e-14
Primitive pair pre-selection threshold      ...     1.000000e-14

Calculating pre-screening integrals         ... done (  0.0 sec) Dimension = 135
Calculating pre-screening integrals (ORCA)  ... done (  0.1 sec) Dimension = 93
Organizing shell pair data                  ... done (  0.0 sec)
Shell pair information
Total number of shell pairs                 ...      9180
Shell pairs after pre-screening             ...      8071
Total number of primitive shell pairs       ...     13080
Primitive shell pairs kept                  ...     10795
          la=0 lb=0:   2934 shell pairs
          la=1 lb=0:   2805 shell pairs
          la=1 lb=1:    559 shell pairs
          la=2 lb=0:   1207 shell pairs
          la=2 lb=1:    461 shell pairs
          la=2 lb=2:    105 shell pairs

Calculating one electron integrals          ... done (  0.0 sec)
Calculating Nuclear repulsion               ... done (  0.0 sec) ENN=    268.852435669254 Eh

SHARK setup successfully completed in   0.3 seconds

Maximum memory used throughout the entire GTOINT-calculation: 17.0 MB

An Electric Field will be added: 0.000e+00 0.000e+00 5.000e-04 au

  ... done adding electric field perturbation



           ************************************************************
           *        Program running with 16 parallel MPI-processes    *
           *              working on a common directory               *
           ************************************************************

Diagonalization of the overlap matrix:
Smallest eigenvalue                        ... 2.604e-06
Time for diagonalization                   ...    0.006 sec
Threshold for overlap eigenvalues          ... 1.000e-08
Number of eigenvalues below threshold      ... 0
Time for construction of square roots      ...    0.021 sec
Total time needed                          ...    0.028 sec

Time for model grid setup =    0.061 sec

Loading Hartree-Fock densities                     ... done
Calculating cut-offs                               ... done
Initializing the effective Hamiltonian             ... done
Setting up the integral package (SHARK)            ... done
Starting the Coulomb interaction                   ... done (   0.0 sec)
Reading the grid                                   ... done
Mapping shells                                     ... done
Starting the XC term evaluation                    ... done (   0.0 sec)
Transforming the Hamiltonian                       ... done (   0.0 sec)
Diagonalizing the Hamiltonian                      ... done (   0.0 sec)
Back transforming the eigenvectors                 ... done (   0.0 sec)
Now organizing SCF variables                       ... done
--------------
SCF ITERATIONS
--------------
ITER       Energy         Delta-E        Max-DP      RMS-DP      [F,P]     Damp
               ***  Starting incremental Fock matrix formation  ***
  0   -305.3389284074   0.000000000000 0.92138779  0.02224742  0.2214221 0.7000
  1   -305.4270640599  -0.088135652474 0.67929855  0.01662124  0.1384806 0.7000
                               ***Turning on DIIS***
  2   -305.4813126160  -0.054248556124 1.57186338  0.03837641  0.0805668 0.0000
  3   -305.0055338539   0.475778762144 0.03675121  0.00153690  0.0394444 0.0000
  4   -305.5468240168  -0.541290162928 0.05830506  0.00107860  0.0051106 0.0000
  5   -305.5792610843  -0.032437067547 0.01758850  0.00036832  0.0033165 0.0000
                      *** Initiating the SOSCF procedure ***
                           *** Shutting down DIIS ***
                      *** Re-Reading the Fockian *** 
                      *** Removing any level shift *** 
ITER      Energy       Delta-E        Grad      Rot      Max-DP    RMS-DP
  6   -305.59083640  -0.0115753183  0.000383  0.000383  0.002682  0.000063
               *** Restarting incremental Fock matrix formation ***
  7   -305.59426423  -0.0034278286  0.000202  0.000448  0.001259  0.000043
  8   -305.59426594  -0.0000017124  0.000102  0.000493  0.002051  0.000050
  9   -305.59426656  -0.0000006176  0.000033  0.000105  0.000299  0.000010
 10   -305.59426664  -0.0000000799  0.000015  0.000062  0.000298  0.000007
 11   -305.59426666  -0.0000000233  0.000006  0.000037  0.000094  0.000003
 12   -305.59426667  -0.0000000034  0.000002  0.000004  0.000019  0.000001
 13   -305.59426667  -0.0000000002  0.000001  0.000001  0.000019  0.000000
                  ***Gradient check signals convergence***
              ***Rediagonalizing the Fockian in SOSCF/NRSCF***

               *****************************************************
               *                     SUCCESS                       *
               *           SCF CONVERGED AFTER  14 CYCLES          *
               *****************************************************

Total Energy       :         -305.59426667 Eh           -8315.64276 eV
  Last Energy change         ...    1.8190e-12  Tolerance :   1.0000e-09
  Last MAX-Density change    ...    5.3264e-06  Tolerance :   1.0000e-08
             **** THE GBW FILE WAS UPDATED (phenol_efield_z_0.0005.gbw) ****
             **** DENSITY phenol_efield_z_0.0005.scfp WAS UPDATED ****
             **** ENERGY FILE WAS UPDATED (phenol_efield_z_0.0005.en.tmp) ****
             **** THE GBW FILE WAS UPDATED (phenol_efield_z_0.0005.gbw) ****
             **** DENSITY phenol_efield_z_0.0005.scfp WAS UPDATED ****
----------------
ORBITAL ENERGIES
----------------

  NO   OCC          E(Eh)            E(eV) 
   0   2.0000     -20.588243      -560.2346 
   1   2.0000     -11.307482      -307.6922 
   2   2.0000     -11.251466      -306.1679 
   3   2.0000     -11.251354      -306.1649 
   4   2.0000     -11.246703      -306.0383 
   5   2.0000     -11.246674      -306.0376 
   6   2.0000     -11.245315      -306.0006 
   7   2.0000      -1.376574       -37.4585 
   8   2.0000      -1.153670       -31.3929 
   9   2.0000      -1.023415       -27.8485 
  10   2.0000      -1.010028       -27.4842 
  11   2.0000      -0.836568       -22.7642 
  12   2.0000      -0.824618       -22.4390 
  13   2.0000      -0.725199       -19.7337 
  14   2.0000      -0.677332       -18.4311 
  15   2.0000      -0.647456       -17.6182 
  16   2.0000      -0.628377       -17.0990 
  17   2.0000      -0.590850       -16.0778 
  18   2.0000      -0.588880       -16.0242 
  19   2.0000      -0.521909       -14.2019 
  20   2.0000      -0.515779       -14.0351 
  21   2.0000      -0.498661       -13.5693 
  22   2.0000      -0.476407       -12.9637 
  23   2.0000      -0.343661        -9.3515 
  24   2.0000      -0.334857        -9.1119 
  25   0.0000       0.034747         0.9455 
  26   0.0000       0.041272         1.1231 
  27   0.0000       0.041594         1.1318 
  28   0.0000       0.056039         1.5249 
  29   0.0000       0.058562         1.5936 
  30   0.0000       0.071207         1.9376 
  31   0.0000       0.102399         2.7864 
  32   0.0000       0.107861         2.9350 
  33   0.0000       0.116149         3.1606 
  34   0.0000       0.129777         3.5314 
  35   0.0000       0.139078         3.7845 
  36   0.0000       0.141554         3.8519 
  37   0.0000       0.142550         3.8790 
  38   0.0000       0.145631         3.9628 
  39   0.0000       0.145844         3.9686 
  40   0.0000       0.157036         4.2732 
  41   0.0000       0.158183         4.3044 
  42   0.0000       0.162933         4.4336 
  43   0.0000       0.167790         4.5658 
  44   0.0000       0.168990         4.5985 
  45   0.0000       0.180211         4.9038 
  46   0.0000       0.187632         5.1057 
  47   0.0000       0.188081         5.1180 
  48   0.0000       0.192351         5.2341 
  49   0.0000       0.193447         5.2640 
  50   0.0000       0.195470         5.3190 
  51   0.0000       0.232507         6.3268 
  52   0.0000       0.262236         7.1358 
  53   0.0000       0.274690         7.4747 
  54   0.0000       0.289890         7.8883 
  55   0.0000       0.294934         8.0256 
  56   0.0000       0.305440         8.3114 
  57   0.0000       0.305699         8.3185 
  58   0.0000       0.321182         8.7398 
  59   0.0000       0.348026         9.4703 
  60   0.0000       0.349889         9.5210 
  61   0.0000       0.353599         9.6219 
  62   0.0000       0.355775         9.6811 
  63   0.0000       0.366502         9.9730 
  64   0.0000       0.371367        10.1054 
  65   0.0000       0.374605        10.1935 
  66   0.0000       0.376700        10.2505 
  67   0.0000       0.400439        10.8965 
  68   0.0000       0.402787        10.9604 
  69   0.0000       0.411719        11.2034 
  70   0.0000       0.413849        11.2614 
  71   0.0000       0.431654        11.7459 
  72   0.0000       0.434654        11.8275 
  73   0.0000       0.441032        12.0011 
  74   0.0000       0.467313        12.7162 
  75   0.0000       0.485059        13.1991 
  76   0.0000       0.498874        13.5750 
  77   0.0000       0.501395        13.6437 
  78   0.0000       0.518573        14.1111 
  79   0.0000       0.524616        14.2755 
  80   0.0000       0.532556        14.4916 
  81   0.0000       0.556969        15.1559 
  82   0.0000       0.577859        15.7243 
  83   0.0000       0.581419        15.8212 
  84   0.0000       0.588987        16.0271 
  85   0.0000       0.596978        16.2446 
  86   0.0000       0.606426        16.5017 
  87   0.0000       0.618437        16.8285 
  88   0.0000       0.632105        17.2005 
  89   0.0000       0.648730        17.6528 
  90   0.0000       0.655112        17.8265 
  91   0.0000       0.667517        18.1641 
  92   0.0000       0.673118        18.3165 
  93   0.0000       0.684378        18.6229 
  94   0.0000       0.687913        18.7191 
  95   0.0000       0.689186        18.7537 
  96   0.0000       0.705073        19.1860 
  97   0.0000       0.724138        19.7048 
  98   0.0000       0.740073        20.1384 
  99   0.0000       0.752437        20.4749 
 100   0.0000       0.753509        20.5040 
 101   0.0000       0.763120        20.7655 
 102   0.0000       0.763612        20.7789 
 103   0.0000       0.770683        20.9713 
 104   0.0000       0.800999        21.7963 
 105   0.0000       0.841878        22.9087 
 106   0.0000       0.858138        23.3511 
 107   0.0000       0.866211        23.5708 
 108   0.0000       0.867902        23.6168 
 109   0.0000       0.874702        23.8019 
 110   0.0000       0.913396        24.8548 
 111   0.0000       0.918861        25.0035 
 112   0.0000       0.922822        25.1113 
 113   0.0000       0.932656        25.3789 
 114   0.0000       0.934414        25.4267 
 115   0.0000       0.938342        25.5336 
 116   0.0000       0.944684        25.7062 
 117   0.0000       0.959413        26.1069 
 118   0.0000       0.977112        26.5886 
 119   0.0000       0.980959        26.6932 
 120   0.0000       0.997092        27.1322 
 121   0.0000       1.033328        28.1183 
 122   0.0000       1.037133        28.2218 
 123   0.0000       1.042775        28.3754 
 124   0.0000       1.068529        29.0761 
 125   0.0000       1.090749        29.6808 
 126   0.0000       1.145642        31.1745 
 127   0.0000       1.161224        31.5985 
 128   0.0000       1.170670        31.8556 
 129   0.0000       1.176620        32.0174 
 130   0.0000       1.247440        33.9446 
 131   0.0000       1.292577        35.1728 
 132   0.0000       1.356221        36.9046 
 133   0.0000       1.378894        37.5216 
 134   0.0000       1.416956        38.5573 
 135   0.0000       1.438872        39.1537 
 136   0.0000       1.462254        39.7900 
 137   0.0000       1.476406        40.1750 
 138   0.0000       1.484597        40.3979 
 139   0.0000       1.519840        41.3569 
 140   0.0000       1.530296        41.6415 
 141   0.0000       1.550101        42.1804 
 142   0.0000       1.567018        42.6407 
 143   0.0000       1.587737        43.2045 
 144   0.0000       1.604630        43.6642 
 145   0.0000       1.631564        44.3971 
 146   0.0000       1.635681        44.5091 
 147   0.0000       1.639333        44.6085 
 148   0.0000       1.648574        44.8600 
 149   0.0000       1.659398        45.1545 
 150   0.0000       1.671568        45.4857 
 151   0.0000       1.703226        46.3471 
 152   0.0000       1.704151        46.3723 
 153   0.0000       1.713539        46.6278 
 154   0.0000       1.731721        47.1225 
 155   0.0000       1.767307        48.0909 
 156   0.0000       1.798078        48.9282 
 157   0.0000       1.800144        48.9844 
 158   0.0000       1.865663        50.7673 
 159   0.0000       1.876921        51.0736 
 160   0.0000       1.888350        51.3846 
 161   0.0000       1.888751        51.3955 
 162   0.0000       1.904969        51.8369 
 163   0.0000       1.930546        52.5328 
 164   0.0000       1.942752        52.8650 
 165   0.0000       1.951458        53.1019 
 166   0.0000       1.960459        53.3468 
 167   0.0000       1.977687        53.8156 
 168   0.0000       1.985934        54.0400 
 169   0.0000       2.043794        55.6145 
 170   0.0000       2.053173        55.8697 
 171   0.0000       2.094339        56.9899 
 172   0.0000       2.110908        57.4407 
 173   0.0000       2.132596        58.0309 
 174   0.0000       2.164889        58.9096 
 175   0.0000       2.179259        59.3007 
 176   0.0000       2.197561        59.7987 
 177   0.0000       2.206317        60.0370 
 178   0.0000       2.214168        60.2506 
 179   0.0000       2.246710        61.1361 
 180   0.0000       2.256405        61.3999 
 181   0.0000       2.286757        62.2258 
 182   0.0000       2.319693        63.1221 
 183   0.0000       2.354467        64.0683 
 184   0.0000       2.362792        64.2948 
 185   0.0000       2.377312        64.6899 
 186   0.0000       2.417544        65.7847 
 187   0.0000       2.452560        66.7376 
 188   0.0000       2.467650        67.1482 
 189   0.0000       2.622478        71.3612 
 190   0.0000       2.625108        71.4328 
 191   0.0000       2.667223        72.5788 
 192   0.0000       2.709850        73.7388 
 193   0.0000       2.756775        75.0157 
 194   0.0000       2.764021        75.2128 
 195   0.0000       2.768959        75.3472 
 196   0.0000       2.850128        77.5559 
 197   0.0000       2.897702        78.8505 
 198   0.0000       2.940756        80.0220 
 199   0.0000       3.006237        81.8039 
 200   0.0000       3.051784        83.0433 
 201   0.0000       3.084624        83.9369 
 202   0.0000       3.128442        85.1292 
 203   0.0000       3.202647        87.1484 
 204   0.0000       3.275700        89.1363 
 205   0.0000       3.365567        91.5817 
 206   0.0000       3.511151        95.5433 
 207   0.0000       3.550232        96.6067 
 208   0.0000       3.742122       101.8283 
 209   0.0000       3.772085       102.6437 
 210   0.0000       3.833906       104.3259 
 211   0.0000       3.923317       106.7589 
 212   0.0000       4.000614       108.8623 
 213   0.0000       4.266719       116.1033 
 214   0.0000       4.717870       128.3798 
Total SCF time: 0 days 0 hours 0 min 16 sec 

Maximum memory used throughout the entire SCF-calculation: 231.6 MB

-------------------------   --------------------
FINAL SINGLE POINT ENERGY      -305.594266668024
-------------------------   --------------------


                            ***************************************
                            *     ORCA property calculations      *
                            ***************************************

                                    ---------------------
                                    Active property flags
                                    ---------------------
   (+) Dipole Moment
   (+) Polarizability


------------------------------------------------------------------------------
                       ORCA ELECTRIC PROPERTIES CALCULATION
------------------------------------------------------------------------------

Dipole Moment Calculation                       ... on
Quadrupole Moment Calculation                   ... off
Polarizability Calculation                      ... Analytic (CP-SCF)
GBWName                                         ... phenol_efield_z_0.0005.gbw
Electron density                                ... phenol_efield_z_0.0005.scfp
The origin for moment calculation is the CENTER OF MASS  = ( 0.892295,  6.685629  0.017111)

-------------
DIPOLE MOMENT
-------------
                                X             Y             Z
Electronic contribution:     -1.75729       0.00073      -0.19975
Nuclear contribution   :      2.09690      -0.00184       0.79546
                        -----------------------------------------
Total Dipole Moment    :      0.33961      -0.00111       0.59571
                        -----------------------------------------
Magnitude (a.u.)       :      0.68572
Magnitude (Debye)      :      1.74295



--------------------
Rotational spectrum 
--------------------
 
Rotational constants in cm-1:     0.187876     0.084795     0.058746 
Rotational constants in MHz :  5632.368735  2542.097443  1761.161239 

 Dipole components along the rotational axes: 
x,y,z [a.u.] :     0.332364     0.001479     0.599781 
x,y,z [Debye]:     0.844802     0.003758     1.524522 

 
Transforming and storing MO dipole integrals   ... done

                ... starting polarizability calculation

The origin for moment calculation is the CENTER OF MASS  = ( 0.892295,  6.685629  0.017111)
Opening the Dipole integral file               ... (phenol_efield_z_0.0005.dmo.tmp) done
Reading Dipole-MO integrals                    ... done
Solving CP-SCF equations                       ... 

           ************************************************************
           *        Program running with 16 parallel MPI-processes    *
           *              working on a common directory               *
           ************************************************************

------------------------------------------------------------------------------
                           ORCA CP-SCF CALCULATION
------------------------------------------------------------------------------

Input orbitals are from        ... phenol_efield_z_0.0005.gbw
Input Perturbation             ... phenol_efield_z_0.0005.cpv.tmp
Wavefunction output            ... phenol_efield_z_0.0005.cpu.tmp
Perturbation mode              ... Real perturbation (singlet)
Solver                         ... POPLE
Max. number of iterations      ... 64
Convergence tolerance          ... 3.000e-05
Integral handling              ... Direct
Number of perturbations        ... 3
Number of operators            ... 1
Orbital ranges used for CP-SCF:
 Operator 0:  Orbitals   0... 24  to  25...214
Variables per perturbation     ... 4750
Memory available               ... 1992.1 MB
Memory needed per perturbation ...   1.4 MB
Perturbations treated per batch... 3
Number of batches              ... 1
     CP-SCF ITERATION   0:   2.0035e+00 (   2.1 sec   0/  3 done)
     CP-SCF ITERATION   1:   4.1783e-01 (   2.1 sec   0/  3 done)
     CP-SCF ITERATION   2:   9.0303e-02 (   2.1 sec   0/  3 done)
     CP-SCF ITERATION   3:   3.9829e-02 (   2.1 sec   0/  3 done)
     CP-SCF ITERATION   4:   1.1414e-02 (   2.1 sec   0/  3 done)
     CP-SCF ITERATION   5:   4.2883e-03 (   2.1 sec   0/  3 done)
     CP-SCF ITERATION   6:   2.2396e-03 (   2.1 sec   0/  3 done)
     CP-SCF ITERATION   7:   8.9984e-04 (   2.1 sec   0/  3 done)
     CP-SCF ITERATION   8:   3.1517e-04 (   2.2 sec   0/  3 done)
     CP-SCF ITERATION   9:   8.5530e-05 (   2.1 sec   2/  3 done)
     CP-SCF ITERATION  10:   2.2192e-05 (   1.5 sec   3/  3 done)
                    *** THE CP-SCF HAS CONVERGED ***
done
Reading CP-SCF coefficients                    ... done
Doing the polarizability tensor                ... done
Cleaning up                                    ... done

-------------------------
THE POLARIZABILITY TENSOR
-------------------------

The raw cartesian tensor (atomic units):
   88.10401      0.00300     -1.45634  
    0.00300     81.87578     -0.02327  
   -1.45634     -0.02327     47.84429  
diagonalized tensor: 
   47.79166     81.87579     88.15662  

    0.03610     -0.00064     -0.99935  
    0.00068      1.00000     -0.00061  
    0.99935     -0.00066      0.03610  

Isotropic polarizability :  72.60802


Timings for individual modules:

Sum of individual times         ...       47.105 sec (=   0.785 min)
GTO integral calculation        ...        2.846 sec (=   0.047 min)   6.0 %
SCF iterations                  ...       19.042 sec (=   0.317 min)  40.4 %
Solution of CP-SCF eqns.        ...       25.216 sec (=   0.420 min)  53.5 %
                             ****ORCA TERMINATED NORMALLY****
TOTAL RUN TIME: 0 days 0 hours 0 minutes 50 seconds 374 msec
