
                                 *****************
                                 * O   R   C   A *
                                 *****************

                                            #,                                       
                                            ###                                      
                                            ####                                     
                                            #####                                    
                                            ######                                   
                                           ########,                                 
                                     ,,################,,,,,                         
                               ,,#################################,,                 
                          ,,##########################################,,             
                       ,#########################################, ''#####,          
                    ,#############################################,,   '####,        
                  ,##################################################,,,,####,       
                ,###########''''           ''''###############################       
              ,#####''   ,,,,##########,,,,          '''####'''          '####       
            ,##' ,,,,###########################,,,                        '##       
           ' ,,###''''                  '''############,,,                           
         ,,##''                                '''############,,,,        ,,,,,,###''
      ,#''                                            '''#######################'''  
     '                                                          ''''####''''         
             ,#######,   #######,   ,#######,      ##                                
            ,#'     '#,  ##    ##  ,#'     '#,    #''#        ######   ,####,        
            ##       ##  ##   ,#'  ##            #'  '#       #        #'  '#        
            ##       ##  #######   ##           ,######,      #####,   #    #        
            '#,     ,#'  ##    ##  '#,     ,#' ,#      #,         ##   #,  ,#        
             '#######'   ##     ##  '#######'  #'      '#     #####' # '####'        



                  #######################################################
                  #                        -***-                        #
                  #          Department of theory and spectroscopy      #
                  #    Directorship and core code : Frank Neese         #
                  #        Max Planck Institute fuer Kohlenforschung    #
                  #                Kaiser Wilhelm Platz 1               #
                  #                 D-45470 Muelheim/Ruhr               #
                  #                      Germany                        #
                  #                                                     #
                  #                  All rights reserved                #
                  #                        -***-                        #
                  #######################################################


                         Program Version 5.0.4 -  RELEASE  -


 With contributions from (in alphabetic order):
   Daniel Aravena         : Magnetic Suceptibility
   Michael Atanasov       : Ab Initio Ligand Field Theory (pilot matlab implementation)
   Alexander A. Auer      : GIAO ZORA, VPT2 properties, NMR spectrum
   Ute Becker             : Parallelization
   Giovanni Bistoni       : ED, misc. LED, open-shell LED, HFLD
   Martin Brehm           : Molecular dynamics
   Dmytro Bykov           : SCF Hessian
   Vijay G. Chilkuri      : MRCI spin determinant printing, contributions to CSF-ICE
   Dipayan Datta          : RHF DLPNO-CCSD density
   Achintya Kumar Dutta   : EOM-CC, STEOM-CC
   Dmitry Ganyushin       : Spin-Orbit,Spin-Spin,Magnetic field MRCI
   Miquel Garcia          : C-PCM and meta-GGA Hessian, CC/C-PCM, Gaussian charge scheme
   Yang Guo               : DLPNO-NEVPT2, F12-NEVPT2, CIM, IAO-localization
   Andreas Hansen         : Spin unrestricted coupled pair/coupled cluster methods
   Benjamin Helmich-Paris : MC-RPA, TRAH-SCF, COSX integrals
   Lee Huntington         : MR-EOM, pCC
   Robert Izsak           : Overlap fitted RIJCOSX, COSX-SCS-MP3, EOM
   Marcus Kettner         : VPT2
   Christian Kollmar      : KDIIS, OOCD, Brueckner-CCSD(T), CCSD density, CASPT2, CASPT2-K
   Simone Kossmann        : Meta GGA functionals, TD-DFT gradient, OOMP2, MP2 Hessian
   Martin Krupicka        : Initial AUTO-CI
   Lucas Lang             : DCDCAS
   Marvin Lechner         : AUTO-CI (C++ implementation), FIC-MRCC
   Dagmar Lenk            : GEPOL surface, SMD
   Dimitrios Liakos       : Extrapolation schemes; Compound Job, initial MDCI parallelization
   Dimitrios Manganas     : Further ROCIS development; embedding schemes
   Dimitrios Pantazis     : SARC Basis sets
   Anastasios Papadopoulos: AUTO-CI, single reference methods and gradients
   Taras Petrenko         : DFT Hessian,TD-DFT gradient, ASA, ECA, R-Raman, ABS, FL, XAS/XES, NRVS
   Peter Pinski           : DLPNO-MP2, DLPNO-MP2 Gradient
   Christoph Reimann      : Effective Core Potentials
   Marius Retegan         : Local ZFS, SOC
   Christoph Riplinger    : Optimizer, TS searches, QM/MM, DLPNO-CCSD(T), (RO)-DLPNO pert. Triples
   Tobias Risthaus        : Range-separated hybrids, TD-DFT gradient, RPA, STAB
   Michael Roemelt        : Original ROCIS implementation
   Masaaki Saitow         : Open-shell DLPNO-CCSD energy and density
   Barbara Sandhoefer     : DKH picture change effects
   Avijit Sen             : IP-ROCIS
   Kantharuban Sivalingam : CASSCF convergence, NEVPT2, FIC-MRCI
   Bernardo de Souza      : ESD, SOC TD-DFT
   Georgi Stoychev        : AutoAux, RI-MP2 NMR, DLPNO-MP2 response
   Willem Van den Heuvel  : Paramagnetic NMR
   Boris Wezisla          : Elementary symmetry handling
   Frank Wennmohs         : Technical directorship


 We gratefully acknowledge several colleagues who have allowed us to
 interface, adapt or use parts of their codes:
   Stefan Grimme, W. Hujo, H. Kruse, P. Pracht,  : VdW corrections, initial TS optimization,
                  C. Bannwarth, S. Ehlert          DFT functionals, gCP, sTDA/sTD-DF
   Ed Valeev, F. Pavosevic, A. Kumar             : LibInt (2-el integral package), F12 methods
   Garnet Chan, S. Sharma, J. Yang, R. Olivares  : DMRG
   Ulf Ekstrom                                   : XCFun DFT Library
   Mihaly Kallay                                 : mrcc  (arbitrary order and MRCC methods)
   Jiri Pittner, Ondrej Demel                    : Mk-CCSD
   Frank Weinhold                                : gennbo (NPA and NBO analysis)
   Christopher J. Cramer and Donald G. Truhlar   : smd solvation model
   Lars Goerigk                                  : TD-DFT with DH, B97 family of functionals
   V. Asgeirsson, H. Jonsson                     : NEB implementation
   FAccTs GmbH                                   : IRC, NEB, NEB-TS, DLPNO-Multilevel, CI-OPT
                                                   MM, QMMM, 2- and 3-layer-ONIOM, Crystal-QMMM,
                                                   LR-CPCM, SF, NACMEs, symmetry and pop. for TD-DFT,
                                                   nearIR, NL-DFT gradient (VV10), updates on ESD,
                                                   ML-optimized integration grids
   S Lehtola, MJT Oliveira, MAL Marques          : LibXC Library
   Liviu Ungur et al                             : ANISO software


 Your calculation uses the libint2 library for the computation of 2-el integrals
 For citations please refer to: http://libint.valeyev.net

 Your ORCA version has been built with support for libXC version: 5.1.0
 For citations please refer to: https://tddft.org/programs/libxc/

 This ORCA versions uses:
   CBLAS   interface :  Fast vector & matrix operations
   LAPACKE interface :  Fast linear algebra routines
   SCALAPACK package :  Parallel linear algebra routines
   Shared memory     :  Shared parallel matrices
   BLAS/LAPACK       :  OpenBLAS 0.3.15  USE64BITINT DYNAMIC_ARCH NO_AFFINITY SkylakeX SINGLE_THREADED
        Core in use  :  SkylakeX
   Copyright (c) 2011-2014, The OpenBLAS Project


================================================================================

----- Orbital basis set information -----
Your calculation utilizes the basis: aug-cc-pVDZ 
    H, B-Ne : Obtained from the ccRepo (grant-hill.group.shef.ac.uk/ccrepo) Feb. 2017
              R. A. Kendall, T. H. Dunning, Jr., R. J. Harrison, J. Chem. Phys. 96, 6796 (1992)
         He : Obtained from the ccRepo (grant-hill.group.shef.ac.uk/ccrepo) Feb. 2017
              D. E. Woon, T. H. Dunning, Jr., J. Chem. Phys. 100, 2975 (1994)
  Li-Be, Na : Obtained from the ccRepo (grant-hill.group.shef.ac.uk/ccrepo) Feb. 2017
              B. P. Prascher, D. E. Woon, K. A. Peterson, T. H. Dunning, Jr., A. K. Wilson, Theor. Chem. Acc. 128, 69 (2011)
         Mg : Obtained from the Peterson Research Group Website (tyr0.chem.wsu.edu/~kipeters) Feb. 2017
              B. P. Prascher, D. E. Woon, K. A. Peterson, T. H. Dunning, Jr., A. K. Wilson, Theor. Chem. Acc. 128, 69 (2011)
      Al-Ar : Obtained from the ccRepo (grant-hill.group.shef.ac.uk/ccrepo) Feb. 2017
              D. E. Woon, T. H. Dunning, Jr., J. Chem. Phys. 98, 1358 (1993)
      Sc-Zn : Obtained from the ccRepo (grant-hill.group.shef.ac.uk/ccrepo) Feb. 2017
              N. B. Balabanov, K. A. Peterson, J. Chem. Phys. 123, 064107 (2005)
              N. B. Balabanov, K. A. Peterson, J. Chem. Phys. 125, 074110 (2006)
      Ga-Kr : Obtained from the ccRepo (grant-hill.group.shef.ac.uk/ccrepo) Feb. 2017
              A. K. Wilson, D. E. Woon, K. A. Peterson, T. H. Dunning, Jr., J. Chem. Phys. 110, 7667 (1999)

================================================================================
                                        WARNINGS
                       Please study these warnings very carefully!
================================================================================


INFO   : the flag for use of the SHARK integral package has been found!

================================================================================
                                       INPUT FILE
================================================================================
NAME = piridine_origin.inp
|  1> ! hf aug-cc-pVDZ
|  2> ! MiniPrint VeryTightSCF
|  3> %pal
|  4>  nprocs 16
|  5> end
|  6> %MaxCore 2000
|  7> %scf
|  8>  maxiter=200
|  9>  efield 0.0 , 0.0 , 0.0
| 10> end
| 11> %elprop
| 12>   polar 1
| 13> end
| 14> * xyz 0 1
| 15> C       -0.180226841      0.360945118     -1.120304970
| 16> C       -0.180226841      1.559292118     -0.407860970
| 17> C       -0.180226841      1.503191118      0.986935030
| 18> N       -0.180226841      0.360945118      1.29018350
| 19> C       -0.180226841     -0.781300882      0.986935030
| 20> C       -0.180226841     -0.837401882     -0.407860970
| 21> H       -0.180226841      0.360945118     -2.206546970
| 22> H       -0.180226841      2.517950118     -0.917077970
| 23> H       -0.180226841      2.421289118      1.572099030
| 24> H       -0.180226841     -1.699398882      1.572099030
| 25> H       -0.180226841     -1.796059882     -0.917077970
| 26> *
| 27> 
| 28>                          ****END OF INPUT****
================================================================================

                       ****************************
                       * Single Point Calculation *
                       ****************************

---------------------------------
CARTESIAN COORDINATES (ANGSTROEM)
---------------------------------
  C     -0.180227    0.360945   -1.120305
  C     -0.180227    1.559292   -0.407861
  C     -0.180227    1.503191    0.986935
  N     -0.180227    0.360945    1.290183
  C     -0.180227   -0.781301    0.986935
  C     -0.180227   -0.837402   -0.407861
  H     -0.180227    0.360945   -2.206547
  H     -0.180227    2.517950   -0.917078
  H     -0.180227    2.421289    1.572099
  H     -0.180227   -1.699399    1.572099
  H     -0.180227   -1.796060   -0.917078

----------------------------
CARTESIAN COORDINATES (A.U.)
----------------------------
  NO LB      ZA    FRAG     MASS         X           Y           Z
   0 C     6.0000    0    12.011   -0.340579    0.682087   -2.117070
   1 C     6.0000    0    12.011   -0.340579    2.946635   -0.770746
   2 C     6.0000    0    12.011   -0.340579    2.840620    1.865037
   3 N     7.0000    0    14.007   -0.340579    0.682087    2.438093
   4 C     6.0000    0    12.011   -0.340579   -1.476445    1.865037
   5 C     6.0000    0    12.011   -0.340579   -1.582460   -0.770746
   6 H     1.0000    0     1.008   -0.340579    0.682087   -4.169769
   7 H     1.0000    0     1.008   -0.340579    4.758236   -1.733026
   8 H     1.0000    0     1.008   -0.340579    4.575573    2.970837
   9 H     1.0000    0     1.008   -0.340579   -3.211398    2.970837
  10 H     1.0000    0     1.008   -0.340579   -3.394061   -1.733026



           ************************************************************
           *        Program running with 16 parallel MPI-processes    *
           *              working on a common directory               *
           ************************************************************
------------------------------------------------------------------------------
                   ___                                                        
                  /   \      - P O W E R E D   B Y -                         
                 /     \                                                     
                 |  |  |   _    _      __       _____    __    __             
                 |  |  |  | |  | |    /  \     |  _  \  |  |  /  |          
                  \  \/   | |  | |   /    \    | | | |  |  | /  /          
                 / \  \   | |__| |  /  /\  \   | |_| |  |  |/  /          
                |  |  |   |  __  | /  /__\  \  |    /   |      \           
                |  |  |   | |  | | |   __   |  |    \   |  |\   \          
                \     /   | |  | | |  |  |  |  | |\  \  |  | \   \       
                 \___/    |_|  |_| |__|  |__|  |_| \__\ |__|  \__/        
                                                                              
                      - O R C A' S   B I G   F R I E N D -                    
                                      &                                       
                       - I N T E G R A L  F E E D E R -                       
                                                                              
 v1 FN, 2020, v2 2021                                                         
------------------------------------------------------------------------------


Reading SHARK input file piridine_origin.SHARKINP.tmp ... ok
----------------------
SHARK INTEGRAL PACKAGE
----------------------

Number of atoms                             ...     11
Number of basis functions                   ...    219
Number of shells                            ...    115
Maximum angular momentum                    ...      2
Integral batch strategy                     ... SHARK/LIBINT Hybrid
RI-J (if used) integral strategy            ... SPLIT-RIJ (Revised 2003 algorithm where possible)
Printlevel                                  ...      1
Contraction scheme used                     ... PARTIAL GENERAL contraction
Coulomb Range Separation                    ... NOT USED
Exchange Range Separation                   ... NOT USED
Finite Nucleus Model                        ... NOT USED
Auxiliary Coulomb fitting basis             ... NOT available
Auxiliary J/K fitting basis                 ... NOT available
Auxiliary Correlation fitting basis         ... NOT available
Auxiliary 'external' fitting basis          ... NOT available
Integral threshold                          ...     1.000000e-12
Primitive cut-off                           ...     1.000000e-14
Primitive pair pre-selection threshold      ...     1.000000e-14

Calculating pre-screening integrals         ... done (  0.0 sec) Dimension = 115
Calculating pre-screening integrals (ORCA)  ... done (  0.1 sec) Dimension = 79
Organizing shell pair data                  ... done (  0.0 sec)
Shell pair information
Total number of shell pairs                 ...      6670
Shell pairs after pre-screening             ...      6002
Total number of primitive shell pairs       ...      9486
Primitive shell pairs kept                  ...      8107
          la=0 lb=0:   2207 shell pairs
          la=1 lb=0:   2075 shell pairs
          la=1 lb=1:    406 shell pairs
          la=2 lb=0:    900 shell pairs
          la=2 lb=1:    336 shell pairs
          la=2 lb=2:     78 shell pairs

Calculating one electron integrals          ... done (  0.0 sec)
Calculating Nuclear repulsion               ... done (  0.0 sec) ENN=    214.850568283403 Eh

SHARK setup successfully completed in   0.2 seconds

Maximum memory used throughout the entire GTOINT-calculation: 15.5 MB


           ************************************************************
           *        Program running with 16 parallel MPI-processes    *
           *              working on a common directory               *
           ************************************************************

Diagonalization of the overlap matrix:
Smallest eigenvalue                        ... 1.248e-05
Time for diagonalization                   ...    0.004 sec
Threshold for overlap eigenvalues          ... 1.000e-08
Number of eigenvalues below threshold      ... 0
Time for construction of square roots      ...    0.013 sec
Total time needed                          ...    0.018 sec

Time for model grid setup =    0.048 sec

Loading Hartree-Fock densities                     ... done
Calculating cut-offs                               ... done
Initializing the effective Hamiltonian             ... done
Setting up the integral package (SHARK)            ... done
Starting the Coulomb interaction                   ... done (   0.0 sec)
Reading the grid                                   ... done
Mapping shells                                     ... done
Starting the XC term evaluation                    ... done (   0.0 sec)
Transforming the Hamiltonian                       ... done (   0.0 sec)
Diagonalizing the Hamiltonian                      ... done (   0.0 sec)
Back transforming the eigenvectors                 ... done (   0.0 sec)
Now organizing SCF variables                       ... done
--------------
SCF ITERATIONS
--------------
ITER       Energy         Delta-E        Max-DP      RMS-DP      [F,P]     Damp
               ***  Starting incremental Fock matrix formation  ***
  0   -246.3408867648   0.000000000000 0.61298856  0.01387576  0.2816268 0.7000
  1   -246.4377512660  -0.096864501246 0.46442233  0.01032485  0.1779024 0.7000
                               ***Turning on DIIS***
  2   -246.4950601712  -0.057308905194 0.32961310  0.00717329  0.1034305 0.7000
  3   -247.1787363381  -0.683676166830 0.77621275  0.01639988  0.0606978 0.0000
  4   -246.5196047931   0.659131544918 0.02342762  0.00057527  0.0083928 0.0000
                      *** Initiating the SOSCF procedure ***
                           *** Shutting down DIIS ***
                      *** Re-Reading the Fockian *** 
                      *** Removing any level shift *** 
ITER      Energy       Delta-E        Grad      Rot      Max-DP    RMS-DP
  5   -246.60759790  -0.0879931048  0.001469  0.001469  0.017359  0.000377
               *** Restarting incremental Fock matrix formation ***
  6   -246.61215794  -0.0045600440  0.000549  0.001120  0.010965  0.000241
  7   -246.61217709  -0.0000191481  0.000299  0.001222  0.007976  0.000176
  8   -246.61218312  -0.0000060323  0.000094  0.000252  0.000893  0.000026
  9   -246.61218381  -0.0000006896  0.000092  0.000319  0.001176  0.000028
 10   -246.61218403  -0.0000002183  0.000019  0.000067  0.000290  0.000007
 11   -246.61218405  -0.0000000182  0.000008  0.000013  0.000064  0.000002
 12   -246.61218405  -0.0000000025  0.000002  0.000002  0.000021  0.000001
 13   -246.61218405  -0.0000000002  0.000001  0.000001  0.000006  0.000000
                  ***Gradient check signals convergence***
              ***Rediagonalizing the Fockian in SOSCF/NRSCF***

               *****************************************************
               *                     SUCCESS                       *
               *           SCF CONVERGED AFTER  14 CYCLES          *
               *****************************************************

Total Energy       :         -246.61218405 Eh           -6710.65869 eV
  Last Energy change         ...   -2.7967e-11  Tolerance :   1.0000e-09
  Last MAX-Density change    ...    3.4145e-06  Tolerance :   1.0000e-08
             **** THE GBW FILE WAS UPDATED (piridine_origin.gbw) ****
             **** DENSITY piridine_origin.scfp WAS UPDATED ****
             **** ENERGY FILE WAS UPDATED (piridine_origin.en.tmp) ****
             **** THE GBW FILE WAS UPDATED (piridine_origin.gbw) ****
             **** DENSITY piridine_origin.scfp WAS UPDATED ****
----------------
ORBITAL ENERGIES
----------------

  NO   OCC          E(Eh)            E(eV) 
   0   2.0000     -15.528345      -422.5477 
   1   2.0000     -11.269354      -306.6547 
   2   2.0000     -11.269314      -306.6536 
   3   2.0000     -11.248590      -306.0897 
   4   2.0000     -11.241159      -305.8875 
   5   2.0000     -11.241056      -305.8847 
   6   2.0000      -1.341500       -36.5041 
   7   2.0000      -1.081855       -29.4388 
   8   2.0000      -1.075051       -29.2536 
   9   2.0000      -0.883867       -24.0513 
  10   2.0000      -0.842083       -22.9143 
  11   2.0000      -0.743875       -20.2419 
  12   2.0000      -0.700482       -19.0611 
  13   2.0000      -0.644969       -17.5505 
  14   2.0000      -0.600973       -16.3533 
  15   2.0000      -0.592507       -16.1229 
  16   2.0000      -0.573019       -15.5926 
  17   2.0000      -0.532836       -14.4992 
  18   2.0000      -0.384471       -10.4620 
  19   2.0000      -0.347811        -9.4644 
  20   2.0000      -0.329899        -8.9770 
  21   0.0000       0.035157         0.9567 
  22   0.0000       0.041828         1.1382 
  23   0.0000       0.045015         1.2249 
  24   0.0000       0.058529         1.5927 
  25   0.0000       0.064381         1.7519 
  26   0.0000       0.084584         2.3017 
  27   0.0000       0.103493         2.8162 
  28   0.0000       0.114593         3.1182 
  29   0.0000       0.117950         3.2096 
  30   0.0000       0.122001         3.3198 
  31   0.0000       0.129929         3.5355 
  32   0.0000       0.138024         3.7558 
  33   0.0000       0.138802         3.7770 
  34   0.0000       0.148000         4.0273 
  35   0.0000       0.150709         4.1010 
  36   0.0000       0.160453         4.3661 
  37   0.0000       0.161264         4.3882 
  38   0.0000       0.166382         4.5275 
  39   0.0000       0.178485         4.8568 
  40   0.0000       0.186173         5.0660 
  41   0.0000       0.188152         5.1199 
  42   0.0000       0.192756         5.2452 
  43   0.0000       0.201319         5.4782 
  44   0.0000       0.237441         6.4611 
  45   0.0000       0.277081         7.5398 
  46   0.0000       0.277394         7.5483 
  47   0.0000       0.293474         7.9858 
  48   0.0000       0.304389         8.2829 
  49   0.0000       0.307839         8.3767 
  50   0.0000       0.326781         8.8922 
  51   0.0000       0.331640         9.0244 
  52   0.0000       0.334283         9.0963 
  53   0.0000       0.357872         9.7382 
  54   0.0000       0.367441         9.9986 
  55   0.0000       0.368008        10.0140 
  56   0.0000       0.370795        10.0898 
  57   0.0000       0.380996        10.3674 
  58   0.0000       0.403319        10.9749 
  59   0.0000       0.427381        11.6296 
  60   0.0000       0.428094        11.6490 
  61   0.0000       0.431489        11.7414 
  62   0.0000       0.443738        12.0747 
  63   0.0000       0.451814        12.2945 
  64   0.0000       0.468362        12.7448 
  65   0.0000       0.498412        13.5625 
  66   0.0000       0.531600        14.4656 
  67   0.0000       0.548056        14.9134 
  68   0.0000       0.549912        14.9639 
  69   0.0000       0.562777        15.3140 
  70   0.0000       0.573935        15.6176 
  71   0.0000       0.576398        15.6846 
  72   0.0000       0.596799        16.2397 
  73   0.0000       0.605366        16.4728 
  74   0.0000       0.618046        16.8179 
  75   0.0000       0.620245        16.8777 
  76   0.0000       0.649925        17.6854 
  77   0.0000       0.659458        17.9448 
  78   0.0000       0.673784        18.3346 
  79   0.0000       0.675560        18.3829 
  80   0.0000       0.676245        18.4016 
  81   0.0000       0.689429        18.7603 
  82   0.0000       0.689553        18.7637 
  83   0.0000       0.691623        18.8200 
  84   0.0000       0.710091        19.3226 
  85   0.0000       0.727656        19.8005 
  86   0.0000       0.728567        19.8253 
  87   0.0000       0.729255        19.8440 
  88   0.0000       0.756412        20.5830 
  89   0.0000       0.761799        20.7296 
  90   0.0000       0.809795        22.0356 
  91   0.0000       0.816375        22.2147 
  92   0.0000       0.840552        22.8726 
  93   0.0000       0.848807        23.0972 
  94   0.0000       0.867041        23.5934 
  95   0.0000       0.873911        23.7803 
  96   0.0000       0.882477        24.0134 
  97   0.0000       0.905582        24.6421 
  98   0.0000       0.911691        24.8084 
  99   0.0000       0.919480        25.0203 
 100   0.0000       0.936662        25.4879 
 101   0.0000       0.967048        26.3147 
 102   0.0000       0.984063        26.7777 
 103   0.0000       1.006913        27.3995 
 104   0.0000       1.018243        27.7078 
 105   0.0000       1.044583        28.4246 
 106   0.0000       1.089899        29.6576 
 107   0.0000       1.104184        30.0464 
 108   0.0000       1.112159        30.2634 
 109   0.0000       1.113560        30.3015 
 110   0.0000       1.132371        30.8134 
 111   0.0000       1.152306        31.3558 
 112   0.0000       1.180566        32.1248 
 113   0.0000       1.243154        33.8280 
 114   0.0000       1.345807        36.6213 
 115   0.0000       1.362704        37.0811 
 116   0.0000       1.371370        37.3169 
 117   0.0000       1.401309        38.1316 
 118   0.0000       1.403054        38.1791 
 119   0.0000       1.470316        40.0093 
 120   0.0000       1.509237        41.0684 
 121   0.0000       1.512150        41.1477 
 122   0.0000       1.520927        41.3865 
 123   0.0000       1.523930        41.4682 
 124   0.0000       1.596660        43.4473 
 125   0.0000       1.604510        43.6609 
 126   0.0000       1.609170        43.7877 
 127   0.0000       1.630324        44.3634 
 128   0.0000       1.664723        45.2994 
 129   0.0000       1.690187        45.9923 
 130   0.0000       1.690461        45.9998 
 131   0.0000       1.694568        46.1115 
 132   0.0000       1.714087        46.6427 
 133   0.0000       1.747075        47.5403 
 134   0.0000       1.814840        49.3843 
 135   0.0000       1.818960        49.4964 
 136   0.0000       1.847637        50.2768 
 137   0.0000       1.855315        50.4857 
 138   0.0000       1.893863        51.5346 
 139   0.0000       1.914496        52.0961 
 140   0.0000       1.946624        52.9703 
 141   0.0000       1.963341        53.4252 
 142   0.0000       2.000319        54.4315 
 143   0.0000       2.017346        54.8948 
 144   0.0000       2.064400        56.1752 
 145   0.0000       2.110030        57.4168 
 146   0.0000       2.119738        57.6810 
 147   0.0000       2.147823        58.4452 
 148   0.0000       2.162515        58.8450 
 149   0.0000       2.167755        58.9876 
 150   0.0000       2.225215        60.5512 
 151   0.0000       2.250140        61.2294 
 152   0.0000       2.252458        61.2925 
 153   0.0000       2.281425        62.0807 
 154   0.0000       2.325268        63.2738 
 155   0.0000       2.340860        63.6980 
 156   0.0000       2.345952        63.8366 
 157   0.0000       2.362612        64.2900 
 158   0.0000       2.419541        65.8390 
 159   0.0000       2.439057        66.3701 
 160   0.0000       2.469275        67.1924 
 161   0.0000       2.519821        68.5678 
 162   0.0000       2.559311        69.6424 
 163   0.0000       2.590697        70.4964 
 164   0.0000       2.639834        71.8335 
 165   0.0000       2.752843        74.9087 
 166   0.0000       2.824588        76.8609 
 167   0.0000       2.837901        77.2232 
 168   0.0000       2.846735        77.4636 
 169   0.0000       2.914546        79.3088 
 170   0.0000       2.936703        79.9118 
 171   0.0000       2.953957        80.3813 
 172   0.0000       2.985305        81.2343 
 173   0.0000       3.105470        84.5041 
 174   0.0000       3.140670        85.4620 
 175   0.0000       3.196718        86.9871 
 176   0.0000       3.310019        90.0702 
 177   0.0000       3.456516        94.0566 
 178   0.0000       3.505511        95.3898 
 179   0.0000       3.610013        98.2334 
 180   0.0000       3.946666       107.3943 
 181   0.0000       3.966637       107.9377 
 182   0.0000       4.506656       122.6323 
Total SCF time: 0 days 0 hours 0 min 9 sec 

Maximum memory used throughout the entire SCF-calculation: 229.7 MB

-------------------------   --------------------
FINAL SINGLE POINT ENERGY      -246.612184051193
-------------------------   --------------------


                            ***************************************
                            *     ORCA property calculations      *
                            ***************************************

                                    ---------------------
                                    Active property flags
                                    ---------------------
   (+) Dipole Moment
   (+) Polarizability


------------------------------------------------------------------------------
                       ORCA ELECTRIC PROPERTIES CALCULATION
------------------------------------------------------------------------------

Dipole Moment Calculation                       ... on
Quadrupole Moment Calculation                   ... off
Polarizability Calculation                      ... Analytic (CP-SCF)
GBWName                                         ... piridine_origin.gbw
Electron density                                ... piridine_origin.scfp
The origin for moment calculation is the CENTER OF MASS  = (-0.340579,  0.682087  0.420996)

-------------
DIPOLE MOMENT
-------------
                                X             Y             Z
Electronic contribution:     -0.00000       0.00000       1.47733
Nuclear contribution   :      0.00000      -0.00000      -1.88024
                        -----------------------------------------
Total Dipole Moment    :     -0.00000       0.00000      -0.40291
                        -----------------------------------------
Magnitude (a.u.)       :      0.40291
Magnitude (Debye)      :      1.02412



--------------------
Rotational spectrum 
--------------------
 
Rotational constants in cm-1:     0.229528     0.201222     0.107222 
Rotational constants in MHz :  6881.073070  6032.486698  3214.449192 

 Dipole components along the rotational axes: 
x,y,z [a.u.] :     0.000000    -0.402912     0.000000 
x,y,z [Debye]:     0.000000    -1.024121     0.000000 

 
Transforming and storing MO dipole integrals   ... done

                ... starting polarizability calculation

The origin for moment calculation is the CENTER OF MASS  = (-0.340579,  0.682087  0.420996)
Opening the Dipole integral file               ... (piridine_origin.dmo.tmp) done
Reading Dipole-MO integrals                    ... done
Solving CP-SCF equations                       ... 

           ************************************************************
           *        Program running with 16 parallel MPI-processes    *
           *              working on a common directory               *
           ************************************************************

------------------------------------------------------------------------------
                           ORCA CP-SCF CALCULATION
------------------------------------------------------------------------------

Input orbitals are from        ... piridine_origin.gbw
Input Perturbation             ... piridine_origin.cpv.tmp
Wavefunction output            ... piridine_origin.cpu.tmp
Perturbation mode              ... Real perturbation (singlet)
Solver                         ... POPLE
Max. number of iterations      ... 64
Convergence tolerance          ... 3.000e-05
Integral handling              ... Direct
Number of perturbations        ... 3
Number of operators            ... 1
Orbital ranges used for CP-SCF:
 Operator 0:  Orbitals   0... 20  to  21...182
Variables per perturbation     ... 3402
Memory available               ... 1993.8 MB
Memory needed per perturbation ...   1.0 MB
Perturbations treated per batch... 3
Number of batches              ... 1
     CP-SCF ITERATION   0:   2.0803e+00 (   1.1 sec   0/  3 done)
     CP-SCF ITERATION   1:   4.0942e-01 (   1.2 sec   0/  3 done)
     CP-SCF ITERATION   2:   1.2131e-01 (   1.2 sec   0/  3 done)
     CP-SCF ITERATION   3:   5.3608e-02 (   1.2 sec   0/  3 done)
     CP-SCF ITERATION   4:   2.1186e-02 (   1.2 sec   0/  3 done)
     CP-SCF ITERATION   5:   9.5544e-03 (   1.2 sec   0/  3 done)
     CP-SCF ITERATION   6:   2.7394e-03 (   1.2 sec   0/  3 done)
     CP-SCF ITERATION   7:   5.8679e-04 (   1.2 sec   1/  3 done)
     CP-SCF ITERATION   8:   1.4708e-04 (   1.0 sec   1/  3 done)
     CP-SCF ITERATION   9:   4.4735e-05 (   1.0 sec   2/  3 done)
     CP-SCF ITERATION  10:   1.1968e-05 (   0.8 sec   3/  3 done)
                    *** THE CP-SCF HAS CONVERGED ***
done
Reading CP-SCF coefficients                    ... done
Doing the polarizability tensor                ... done
Cleaning up                                    ... done

-------------------------
THE POLARIZABILITY TENSOR
-------------------------

The raw cartesian tensor (atomic units):
   39.79676      0.00000      0.00000  
    0.00000     79.86988     -0.00000  
    0.00000     -0.00000     65.69746  
diagonalized tensor: 
   39.79676     65.69746     79.86988  

    1.00000     -0.00000      0.00000  
   -0.00000     -0.00000      1.00000  
   -0.00000     -1.00000     -0.00000  

Isotropic polarizability :  61.78803


Timings for individual modules:

Sum of individual times         ...       30.436 sec (=   0.507 min)
GTO integral calculation        ...        2.887 sec (=   0.048 min)   9.5 %
SCF iterations                  ...       12.428 sec (=   0.207 min)  40.8 %
Solution of CP-SCF eqns.        ...       15.122 sec (=   0.252 min)  49.7 %
                             ****ORCA TERMINATED NORMALLY****
TOTAL RUN TIME: 0 days 0 hours 0 minutes 33 seconds 447 msec
