
                                 *****************
                                 * O   R   C   A *
                                 *****************

                                            #,                                       
                                            ###                                      
                                            ####                                     
                                            #####                                    
                                            ######                                   
                                           ########,                                 
                                     ,,################,,,,,                         
                               ,,#################################,,                 
                          ,,##########################################,,             
                       ,#########################################, ''#####,          
                    ,#############################################,,   '####,        
                  ,##################################################,,,,####,       
                ,###########''''           ''''###############################       
              ,#####''   ,,,,##########,,,,          '''####'''          '####       
            ,##' ,,,,###########################,,,                        '##       
           ' ,,###''''                  '''############,,,                           
         ,,##''                                '''############,,,,        ,,,,,,###''
      ,#''                                            '''#######################'''  
     '                                                          ''''####''''         
             ,#######,   #######,   ,#######,      ##                                
            ,#'     '#,  ##    ##  ,#'     '#,    #''#        ######   ,####,        
            ##       ##  ##   ,#'  ##            #'  '#       #        #'  '#        
            ##       ##  #######   ##           ,######,      #####,   #    #        
            '#,     ,#'  ##    ##  '#,     ,#' ,#      #,         ##   #,  ,#        
             '#######'   ##     ##  '#######'  #'      '#     #####' # '####'        



                  #######################################################
                  #                        -***-                        #
                  #          Department of theory and spectroscopy      #
                  #    Directorship and core code : Frank Neese         #
                  #        Max Planck Institute fuer Kohlenforschung    #
                  #                Kaiser Wilhelm Platz 1               #
                  #                 D-45470 Muelheim/Ruhr               #
                  #                      Germany                        #
                  #                                                     #
                  #                  All rights reserved                #
                  #                        -***-                        #
                  #######################################################


                         Program Version 5.0.4 -  RELEASE  -


 With contributions from (in alphabetic order):
   Daniel Aravena         : Magnetic Suceptibility
   Michael Atanasov       : Ab Initio Ligand Field Theory (pilot matlab implementation)
   Alexander A. Auer      : GIAO ZORA, VPT2 properties, NMR spectrum
   Ute Becker             : Parallelization
   Giovanni Bistoni       : ED, misc. LED, open-shell LED, HFLD
   Martin Brehm           : Molecular dynamics
   Dmytro Bykov           : SCF Hessian
   Vijay G. Chilkuri      : MRCI spin determinant printing, contributions to CSF-ICE
   Dipayan Datta          : RHF DLPNO-CCSD density
   Achintya Kumar Dutta   : EOM-CC, STEOM-CC
   Dmitry Ganyushin       : Spin-Orbit,Spin-Spin,Magnetic field MRCI
   Miquel Garcia          : C-PCM and meta-GGA Hessian, CC/C-PCM, Gaussian charge scheme
   Yang Guo               : DLPNO-NEVPT2, F12-NEVPT2, CIM, IAO-localization
   Andreas Hansen         : Spin unrestricted coupled pair/coupled cluster methods
   Benjamin Helmich-Paris : MC-RPA, TRAH-SCF, COSX integrals
   Lee Huntington         : MR-EOM, pCC
   Robert Izsak           : Overlap fitted RIJCOSX, COSX-SCS-MP3, EOM
   Marcus Kettner         : VPT2
   Christian Kollmar      : KDIIS, OOCD, Brueckner-CCSD(T), CCSD density, CASPT2, CASPT2-K
   Simone Kossmann        : Meta GGA functionals, TD-DFT gradient, OOMP2, MP2 Hessian
   Martin Krupicka        : Initial AUTO-CI
   Lucas Lang             : DCDCAS
   Marvin Lechner         : AUTO-CI (C++ implementation), FIC-MRCC
   Dagmar Lenk            : GEPOL surface, SMD
   Dimitrios Liakos       : Extrapolation schemes; Compound Job, initial MDCI parallelization
   Dimitrios Manganas     : Further ROCIS development; embedding schemes
   Dimitrios Pantazis     : SARC Basis sets
   Anastasios Papadopoulos: AUTO-CI, single reference methods and gradients
   Taras Petrenko         : DFT Hessian,TD-DFT gradient, ASA, ECA, R-Raman, ABS, FL, XAS/XES, NRVS
   Peter Pinski           : DLPNO-MP2, DLPNO-MP2 Gradient
   Christoph Reimann      : Effective Core Potentials
   Marius Retegan         : Local ZFS, SOC
   Christoph Riplinger    : Optimizer, TS searches, QM/MM, DLPNO-CCSD(T), (RO)-DLPNO pert. Triples
   Tobias Risthaus        : Range-separated hybrids, TD-DFT gradient, RPA, STAB
   Michael Roemelt        : Original ROCIS implementation
   Masaaki Saitow         : Open-shell DLPNO-CCSD energy and density
   Barbara Sandhoefer     : DKH picture change effects
   Avijit Sen             : IP-ROCIS
   Kantharuban Sivalingam : CASSCF convergence, NEVPT2, FIC-MRCI
   Bernardo de Souza      : ESD, SOC TD-DFT
   Georgi Stoychev        : AutoAux, RI-MP2 NMR, DLPNO-MP2 response
   Willem Van den Heuvel  : Paramagnetic NMR
   Boris Wezisla          : Elementary symmetry handling
   Frank Wennmohs         : Technical directorship


 We gratefully acknowledge several colleagues who have allowed us to
 interface, adapt or use parts of their codes:
   Stefan Grimme, W. Hujo, H. Kruse, P. Pracht,  : VdW corrections, initial TS optimization,
                  C. Bannwarth, S. Ehlert          DFT functionals, gCP, sTDA/sTD-DF
   Ed Valeev, F. Pavosevic, A. Kumar             : LibInt (2-el integral package), F12 methods
   Garnet Chan, S. Sharma, J. Yang, R. Olivares  : DMRG
   Ulf Ekstrom                                   : XCFun DFT Library
   Mihaly Kallay                                 : mrcc  (arbitrary order and MRCC methods)
   Jiri Pittner, Ondrej Demel                    : Mk-CCSD
   Frank Weinhold                                : gennbo (NPA and NBO analysis)
   Christopher J. Cramer and Donald G. Truhlar   : smd solvation model
   Lars Goerigk                                  : TD-DFT with DH, B97 family of functionals
   V. Asgeirsson, H. Jonsson                     : NEB implementation
   FAccTs GmbH                                   : IRC, NEB, NEB-TS, DLPNO-Multilevel, CI-OPT
                                                   MM, QMMM, 2- and 3-layer-ONIOM, Crystal-QMMM,
                                                   LR-CPCM, SF, NACMEs, symmetry and pop. for TD-DFT,
                                                   nearIR, NL-DFT gradient (VV10), updates on ESD,
                                                   ML-optimized integration grids
   S Lehtola, MJT Oliveira, MAL Marques          : LibXC Library
   Liviu Ungur et al                             : ANISO software


 Your calculation uses the libint2 library for the computation of 2-el integrals
 For citations please refer to: http://libint.valeyev.net

 Your ORCA version has been built with support for libXC version: 5.1.0
 For citations please refer to: https://tddft.org/programs/libxc/

 This ORCA versions uses:
   CBLAS   interface :  Fast vector & matrix operations
   LAPACKE interface :  Fast linear algebra routines
   SCALAPACK package :  Parallel linear algebra routines
   Shared memory     :  Shared parallel matrices
   BLAS/LAPACK       :  OpenBLAS 0.3.15  USE64BITINT DYNAMIC_ARCH NO_AFFINITY SkylakeX SINGLE_THREADED
        Core in use  :  SkylakeX
   Copyright (c) 2011-2014, The OpenBLAS Project


================================================================================

----- Orbital basis set information -----
Your calculation utilizes the basis: aug-cc-pVDZ 
    H, B-Ne : Obtained from the ccRepo (grant-hill.group.shef.ac.uk/ccrepo) Feb. 2017
              R. A. Kendall, T. H. Dunning, Jr., R. J. Harrison, J. Chem. Phys. 96, 6796 (1992)
         He : Obtained from the ccRepo (grant-hill.group.shef.ac.uk/ccrepo) Feb. 2017
              D. E. Woon, T. H. Dunning, Jr., J. Chem. Phys. 100, 2975 (1994)
  Li-Be, Na : Obtained from the ccRepo (grant-hill.group.shef.ac.uk/ccrepo) Feb. 2017
              B. P. Prascher, D. E. Woon, K. A. Peterson, T. H. Dunning, Jr., A. K. Wilson, Theor. Chem. Acc. 128, 69 (2011)
         Mg : Obtained from the Peterson Research Group Website (tyr0.chem.wsu.edu/~kipeters) Feb. 2017
              B. P. Prascher, D. E. Woon, K. A. Peterson, T. H. Dunning, Jr., A. K. Wilson, Theor. Chem. Acc. 128, 69 (2011)
      Al-Ar : Obtained from the ccRepo (grant-hill.group.shef.ac.uk/ccrepo) Feb. 2017
              D. E. Woon, T. H. Dunning, Jr., J. Chem. Phys. 98, 1358 (1993)
      Sc-Zn : Obtained from the ccRepo (grant-hill.group.shef.ac.uk/ccrepo) Feb. 2017
              N. B. Balabanov, K. A. Peterson, J. Chem. Phys. 123, 064107 (2005)
              N. B. Balabanov, K. A. Peterson, J. Chem. Phys. 125, 074110 (2006)
      Ga-Kr : Obtained from the ccRepo (grant-hill.group.shef.ac.uk/ccrepo) Feb. 2017
              A. K. Wilson, D. E. Woon, K. A. Peterson, T. H. Dunning, Jr., J. Chem. Phys. 110, 7667 (1999)

================================================================================
                                        WARNINGS
                       Please study these warnings very carefully!
================================================================================


INFO   : the flag for use of the SHARK integral package has been found!

================================================================================
                                       INPUT FILE
================================================================================
NAME = piridine_efield_y_0.016.inp
|  1> ! hf aug-cc-pVDZ
|  2> ! MiniPrint VeryTightSCF
|  3> %pal
|  4>  nprocs 16
|  5> end
|  6> %MaxCore 2000
|  7> %scf
|  8>  maxiter=200
|  9>  efield 0.0 , 0.016 , 0.0
| 10> end
| 11> %elprop
| 12>   polar 1
| 13> end
| 14> * xyz 0 1
| 15> C       -0.180226841      0.360945118     -1.120304970
| 16> C       -0.180226841      1.559292118     -0.407860970
| 17> C       -0.180226841      1.503191118      0.986935030
| 18> N       -0.180226841      0.360945118      1.29018350
| 19> C       -0.180226841     -0.781300882      0.986935030
| 20> C       -0.180226841     -0.837401882     -0.407860970
| 21> H       -0.180226841      0.360945118     -2.206546970
| 22> H       -0.180226841      2.517950118     -0.917077970
| 23> H       -0.180226841      2.421289118      1.572099030
| 24> H       -0.180226841     -1.699398882      1.572099030
| 25> H       -0.180226841     -1.796059882     -0.917077970
| 26> *
| 27> 
| 28>                          ****END OF INPUT****
================================================================================

                       ****************************
                       * Single Point Calculation *
                       ****************************

---------------------------------
CARTESIAN COORDINATES (ANGSTROEM)
---------------------------------
  C     -0.180227    0.360945   -1.120305
  C     -0.180227    1.559292   -0.407861
  C     -0.180227    1.503191    0.986935
  N     -0.180227    0.360945    1.290183
  C     -0.180227   -0.781301    0.986935
  C     -0.180227   -0.837402   -0.407861
  H     -0.180227    0.360945   -2.206547
  H     -0.180227    2.517950   -0.917078
  H     -0.180227    2.421289    1.572099
  H     -0.180227   -1.699399    1.572099
  H     -0.180227   -1.796060   -0.917078

----------------------------
CARTESIAN COORDINATES (A.U.)
----------------------------
  NO LB      ZA    FRAG     MASS         X           Y           Z
   0 C     6.0000    0    12.011   -0.340579    0.682087   -2.117070
   1 C     6.0000    0    12.011   -0.340579    2.946635   -0.770746
   2 C     6.0000    0    12.011   -0.340579    2.840620    1.865037
   3 N     7.0000    0    14.007   -0.340579    0.682087    2.438093
   4 C     6.0000    0    12.011   -0.340579   -1.476445    1.865037
   5 C     6.0000    0    12.011   -0.340579   -1.582460   -0.770746
   6 H     1.0000    0     1.008   -0.340579    0.682087   -4.169769
   7 H     1.0000    0     1.008   -0.340579    4.758236   -1.733026
   8 H     1.0000    0     1.008   -0.340579    4.575573    2.970837
   9 H     1.0000    0     1.008   -0.340579   -3.211398    2.970837
  10 H     1.0000    0     1.008   -0.340579   -3.394061   -1.733026



           ************************************************************
           *        Program running with 16 parallel MPI-processes    *
           *              working on a common directory               *
           ************************************************************
------------------------------------------------------------------------------
                   ___                                                        
                  /   \      - P O W E R E D   B Y -                         
                 /     \                                                     
                 |  |  |   _    _      __       _____    __    __             
                 |  |  |  | |  | |    /  \     |  _  \  |  |  /  |          
                  \  \/   | |  | |   /    \    | | | |  |  | /  /          
                 / \  \   | |__| |  /  /\  \   | |_| |  |  |/  /          
                |  |  |   |  __  | /  /__\  \  |    /   |      \           
                |  |  |   | |  | | |   __   |  |    \   |  |\   \          
                \     /   | |  | | |  |  |  |  | |\  \  |  | \   \       
                 \___/    |_|  |_| |__|  |__|  |_| \__\ |__|  \__/        
                                                                              
                      - O R C A' S   B I G   F R I E N D -                    
                                      &                                       
                       - I N T E G R A L  F E E D E R -                       
                                                                              
 v1 FN, 2020, v2 2021                                                         
------------------------------------------------------------------------------


Reading SHARK input file piridine_efield_y_0.016.SHARKINP.tmp ... ok
----------------------
SHARK INTEGRAL PACKAGE
----------------------

Number of atoms                             ...     11
Number of basis functions                   ...    219
Number of shells                            ...    115
Maximum angular momentum                    ...      2
Integral batch strategy                     ... SHARK/LIBINT Hybrid
RI-J (if used) integral strategy            ... SPLIT-RIJ (Revised 2003 algorithm where possible)
Printlevel                                  ...      1
Contraction scheme used                     ... PARTIAL GENERAL contraction
Coulomb Range Separation                    ... NOT USED
Exchange Range Separation                   ... NOT USED
Finite Nucleus Model                        ... NOT USED
Auxiliary Coulomb fitting basis             ... NOT available
Auxiliary J/K fitting basis                 ... NOT available
Auxiliary Correlation fitting basis         ... NOT available
Auxiliary 'external' fitting basis          ... NOT available
Integral threshold                          ...     1.000000e-12
Primitive cut-off                           ...     1.000000e-14
Primitive pair pre-selection threshold      ...     1.000000e-14

Calculating pre-screening integrals         ... done (  0.0 sec) Dimension = 115
Calculating pre-screening integrals (ORCA)  ... done (  0.1 sec) Dimension = 79
Organizing shell pair data                  ... done (  0.0 sec)
Shell pair information
Total number of shell pairs                 ...      6670
Shell pairs after pre-screening             ...      6002
Total number of primitive shell pairs       ...      9486
Primitive shell pairs kept                  ...      8107
          la=0 lb=0:   2207 shell pairs
          la=1 lb=0:   2075 shell pairs
          la=1 lb=1:    406 shell pairs
          la=2 lb=0:    900 shell pairs
          la=2 lb=1:    336 shell pairs
          la=2 lb=2:     78 shell pairs

Calculating one electron integrals          ... done (  0.0 sec)
Calculating Nuclear repulsion               ... done (  0.0 sec) ENN=    214.850568283403 Eh

SHARK setup successfully completed in   0.3 seconds

Maximum memory used throughout the entire GTOINT-calculation: 15.5 MB

An Electric Field will be added: 0.000e+00 1.600e-02 0.000e+00 au

  ... done adding electric field perturbation



           ************************************************************
           *        Program running with 16 parallel MPI-processes    *
           *              working on a common directory               *
           ************************************************************

Diagonalization of the overlap matrix:
Smallest eigenvalue                        ... 1.248e-05
Time for diagonalization                   ...    0.004 sec
Threshold for overlap eigenvalues          ... 1.000e-08
Number of eigenvalues below threshold      ... 0
Time for construction of square roots      ...    0.011 sec
Total time needed                          ...    0.016 sec

Time for model grid setup =    0.051 sec

Loading Hartree-Fock densities                     ... done
Calculating cut-offs                               ... done
Initializing the effective Hamiltonian             ... done
Setting up the integral package (SHARK)            ... done
Starting the Coulomb interaction                   ... done (   0.0 sec)
Reading the grid                                   ... done
Mapping shells                                     ... done
Starting the XC term evaluation                    ... done (   0.0 sec)
Transforming the Hamiltonian                       ... done (   0.0 sec)
Diagonalizing the Hamiltonian                      ... done (   0.0 sec)
Back transforming the eigenvectors                 ... done (   0.0 sec)
Now organizing SCF variables                       ... done
--------------
SCF ITERATIONS
--------------
ITER       Energy         Delta-E        Max-DP      RMS-DP      [F,P]     Damp
               ***  Starting incremental Fock matrix formation  ***
  0   -246.3361630303   0.000000000000 0.66415419  0.01396701  0.2809358 0.7000
  1   -246.4392309309  -0.103067900634 0.49749505  0.01040507  0.1774130 0.7000
                               ***Turning on DIIS***
  2   -246.4996000811  -0.060369150176 0.34814315  0.00723755  0.1031087 0.7000
  3   -247.1635104869  -0.663910405760 0.80168757  0.01657297  0.0605430 0.0000
  4   -246.5271412518   0.636369235081 0.02919473  0.00076416  0.0083533 0.0000
                      *** Initiating the SOSCF procedure ***
                           *** Shutting down DIIS ***
                      *** Re-Reading the Fockian *** 
                      *** Removing any level shift *** 
ITER      Energy       Delta-E        Grad      Rot      Max-DP    RMS-DP
  5   -246.61823148  -0.0910902312  0.001196  0.001196  0.020620  0.000482
               *** Restarting incremental Fock matrix formation ***
  6   -246.62244281  -0.0042113298  0.000697  0.002756  0.016958  0.000374
  7   -246.62247079  -0.0000279766  0.000294  0.002345  0.011776  0.000281
  8   -246.62247868  -0.0000078906  0.000093  0.000193  0.001582  0.000036
  9   -246.62247930  -0.0000006230  0.000076  0.000191  0.001191  0.000026
 10   -246.62247948  -0.0000001767  0.000025  0.000109  0.000338  0.000010
 11   -246.62247951  -0.0000000344  0.000008  0.000024  0.000230  0.000004
 12   -246.62247952  -0.0000000029  0.000002  0.000005  0.000094  0.000002
 13   -246.62247952  -0.0000000006  0.000001  0.000002  0.000009  0.000000
                  ***Gradient check signals convergence***
              ***Rediagonalizing the Fockian in SOSCF/NRSCF***

               *****************************************************
               *                     SUCCESS                       *
               *           SCF CONVERGED AFTER  14 CYCLES          *
               *****************************************************

Total Energy       :         -246.62247952 Eh           -6710.93885 eV
  Last Energy change         ...    1.7963e-11  Tolerance :   1.0000e-09
  Last MAX-Density change    ...    1.0185e-05  Tolerance :   1.0000e-08
             **** THE GBW FILE WAS UPDATED (piridine_efield_y_0.016.gbw) ****
             **** DENSITY piridine_efield_y_0.016.scfp WAS UPDATED ****
             **** ENERGY FILE WAS UPDATED (piridine_efield_y_0.016.en.tmp) ****
             **** THE GBW FILE WAS UPDATED (piridine_efield_y_0.016.gbw) ****
             **** DENSITY piridine_efield_y_0.016.scfp WAS UPDATED ****
----------------
ORBITAL ENERGIES
----------------

  NO   OCC          E(Eh)            E(eV) 
   0   2.0000     -15.531223      -422.6261 
   1   2.0000     -11.282840      -307.0217 
   2   2.0000     -11.260578      -306.4159 
   3   2.0000     -11.255113      -306.2672 
   4   2.0000     -11.250206      -306.1337 
   5   2.0000     -11.232472      -305.6511 
   6   2.0000      -1.344027       -36.5728 
   7   2.0000      -1.085804       -29.5462 
   8   2.0000      -1.075966       -29.2785 
   9   2.0000      -0.886532       -24.1238 
  10   2.0000      -0.844299       -22.9745 
  11   2.0000      -0.748001       -20.3541 
  12   2.0000      -0.701224       -19.0813 
  13   2.0000      -0.647662       -17.6238 
  14   2.0000      -0.603137       -16.4122 
  15   2.0000      -0.595214       -16.1966 
  16   2.0000      -0.573898       -15.6165 
  17   2.0000      -0.532059       -14.4781 
  18   2.0000      -0.387799       -10.5525 
  19   2.0000      -0.348495        -9.4830 
  20   2.0000      -0.331439        -9.0189 
  21   0.0000      -0.078200        -2.1279 
  22   0.0000      -0.057036        -1.5520 
  23   0.0000       0.029798         0.8109 
  24   0.0000       0.052561         1.4303 
  25   0.0000       0.053733         1.4622 
  26   0.0000       0.076785         2.0894 
  27   0.0000       0.082123         2.2347 
  28   0.0000       0.087675         2.3858 
  29   0.0000       0.090094         2.4516 
  30   0.0000       0.119484         3.2513 
  31   0.0000       0.120776         3.2865 
  32   0.0000       0.132058         3.5935 
  33   0.0000       0.133845         3.6421 
  34   0.0000       0.141583         3.8527 
  35   0.0000       0.155454         4.2301 
  36   0.0000       0.161575         4.3967 
  37   0.0000       0.187703         5.1076 
  38   0.0000       0.201848         5.4926 
  39   0.0000       0.202479         5.5097 
  40   0.0000       0.219797         5.9810 
  41   0.0000       0.221543         6.0285 
  42   0.0000       0.231122         6.2891 
  43   0.0000       0.239871         6.5272 
  44   0.0000       0.259959         7.0739 
  45   0.0000       0.267602         7.2818 
  46   0.0000       0.281046         7.6476 
  47   0.0000       0.286323         7.7913 
  48   0.0000       0.304983         8.2990 
  49   0.0000       0.312118         8.4932 
  50   0.0000       0.319581         8.6963 
  51   0.0000       0.334435         9.1004 
  52   0.0000       0.335398         9.1266 
  53   0.0000       0.350291         9.5319 
  54   0.0000       0.355462         9.6726 
  55   0.0000       0.356642         9.7047 
  56   0.0000       0.367399         9.9974 
  57   0.0000       0.377349        10.2682 
  58   0.0000       0.392167        10.6714 
  59   0.0000       0.424556        11.5528 
  60   0.0000       0.442868        12.0510 
  61   0.0000       0.449308        12.2263 
  62   0.0000       0.462895        12.5960 
  63   0.0000       0.471155        12.8208 
  64   0.0000       0.471875        12.8404 
  65   0.0000       0.491941        13.3864 
  66   0.0000       0.544056        14.8045 
  67   0.0000       0.546283        14.8651 
  68   0.0000       0.546496        14.8709 
  69   0.0000       0.562840        15.3157 
  70   0.0000       0.571287        15.5455 
  71   0.0000       0.573435        15.6040 
  72   0.0000       0.599106        16.3025 
  73   0.0000       0.599263        16.3068 
  74   0.0000       0.609821        16.5941 
  75   0.0000       0.631699        17.1894 
  76   0.0000       0.634705        17.2712 
  77   0.0000       0.648170        17.6376 
  78   0.0000       0.666721        18.1424 
  79   0.0000       0.667281        18.1576 
  80   0.0000       0.670866        18.2552 
  81   0.0000       0.686669        18.6852 
  82   0.0000       0.696679        18.9576 
  83   0.0000       0.704780        19.1780 
  84   0.0000       0.720070        19.5941 
  85   0.0000       0.731561        19.9068 
  86   0.0000       0.734723        19.9928 
  87   0.0000       0.735459        20.0129 
  88   0.0000       0.762811        20.7571 
  89   0.0000       0.780418        21.2362 
  90   0.0000       0.807473        21.9725 
  91   0.0000       0.810180        22.0461 
  92   0.0000       0.836836        22.7715 
  93   0.0000       0.849784        23.1238 
  94   0.0000       0.870071        23.6758 
  95   0.0000       0.879894        23.9431 
  96   0.0000       0.880190        23.9512 
  97   0.0000       0.903055        24.5734 
  98   0.0000       0.914054        24.8727 
  99   0.0000       0.917546        24.9677 
 100   0.0000       0.935714        25.4621 
 101   0.0000       0.969997        26.3950 
 102   0.0000       0.980562        26.6824 
 103   0.0000       1.007818        27.4241 
 104   0.0000       1.015896        27.6439 
 105   0.0000       1.048649        28.5352 
 106   0.0000       1.090700        29.6795 
 107   0.0000       1.098863        29.9016 
 108   0.0000       1.111423        30.2434 
 109   0.0000       1.119031        30.4504 
 110   0.0000       1.131249        30.7828 
 111   0.0000       1.151873        31.3440 
 112   0.0000       1.183802        32.2129 
 113   0.0000       1.242116        33.7997 
 114   0.0000       1.344266        36.5793 
 115   0.0000       1.360173        37.0122 
 116   0.0000       1.367303        37.2062 
 117   0.0000       1.400271        38.1033 
 118   0.0000       1.403076        38.1796 
 119   0.0000       1.468078        39.9484 
 120   0.0000       1.502832        40.8941 
 121   0.0000       1.509589        41.0780 
 122   0.0000       1.517811        41.3017 
 123   0.0000       1.528007        41.5792 
 124   0.0000       1.591822        43.3157 
 125   0.0000       1.602969        43.6190 
 126   0.0000       1.612565        43.8801 
 127   0.0000       1.623666        44.1822 
 128   0.0000       1.672135        45.5011 
 129   0.0000       1.684118        45.8272 
 130   0.0000       1.689106        45.9629 
 131   0.0000       1.697320        46.1864 
 132   0.0000       1.712478        46.5989 
 133   0.0000       1.743004        47.4295 
 134   0.0000       1.809730        49.2453 
 135   0.0000       1.821788        49.5734 
 136   0.0000       1.844802        50.1996 
 137   0.0000       1.855042        50.4783 
 138   0.0000       1.893638        51.5285 
 139   0.0000       1.915225        52.1159 
 140   0.0000       1.944567        52.9144 
 141   0.0000       1.962406        53.3998 
 142   0.0000       1.996880        54.3379 
 143   0.0000       2.016191        54.8634 
 144   0.0000       2.063963        56.1633 
 145   0.0000       2.102140        57.2021 
 146   0.0000       2.123565        57.7852 
 147   0.0000       2.142687        58.3055 
 148   0.0000       2.160558        58.7918 
 149   0.0000       2.167571        58.9826 
 150   0.0000       2.225306        60.5536 
 151   0.0000       2.241590        60.9968 
 152   0.0000       2.256895        61.4132 
 153   0.0000       2.281780        62.0904 
 154   0.0000       2.325150        63.2706 
 155   0.0000       2.339774        63.6685 
 156   0.0000       2.339790        63.6689 
 157   0.0000       2.366662        64.4001 
 158   0.0000       2.418748        65.8175 
 159   0.0000       2.438284        66.3491 
 160   0.0000       2.467675        67.1488 
 161   0.0000       2.518420        68.5297 
 162   0.0000       2.558421        69.6182 
 163   0.0000       2.588502        70.4367 
 164   0.0000       2.637801        71.7782 
 165   0.0000       2.751238        74.8650 
 166   0.0000       2.821399        76.7742 
 167   0.0000       2.837399        77.2096 
 168   0.0000       2.844845        77.4122 
 169   0.0000       2.912095        79.2421 
 170   0.0000       2.936048        79.8939 
 171   0.0000       2.951897        80.3252 
 172   0.0000       2.985940        81.2516 
 173   0.0000       3.103745        84.4572 
 174   0.0000       3.138584        85.4052 
 175   0.0000       3.194990        86.9401 
 176   0.0000       3.308924        90.0404 
 177   0.0000       3.455026        94.0160 
 178   0.0000       3.504148        95.3527 
 179   0.0000       3.608286        98.1865 
 180   0.0000       3.943725       107.3142 
 181   0.0000       3.965822       107.9155 
 182   0.0000       4.504714       122.5795 
Total SCF time: 0 days 0 hours 0 min 10 sec 

Maximum memory used throughout the entire SCF-calculation: 229.7 MB

-------------------------   --------------------
FINAL SINGLE POINT ENERGY      -246.622479517522
-------------------------   --------------------


                            ***************************************
                            *     ORCA property calculations      *
                            ***************************************

                                    ---------------------
                                    Active property flags
                                    ---------------------
   (+) Dipole Moment
   (+) Polarizability


------------------------------------------------------------------------------
                       ORCA ELECTRIC PROPERTIES CALCULATION
------------------------------------------------------------------------------

Dipole Moment Calculation                       ... on
Quadrupole Moment Calculation                   ... off
Polarizability Calculation                      ... Analytic (CP-SCF)
GBWName                                         ... piridine_efield_y_0.016.gbw
Electron density                                ... piridine_efield_y_0.016.scfp
The origin for moment calculation is the CENTER OF MASS  = (-0.340579,  0.682087  0.420996)

-------------
DIPOLE MOMENT
-------------
                                X             Y             Z
Electronic contribution:     -0.00000       1.29705       1.47287
Nuclear contribution   :      0.00000      -0.00000      -1.88024
                        -----------------------------------------
Total Dipole Moment    :     -0.00000       1.29705      -0.40738
                        -----------------------------------------
Magnitude (a.u.)       :      1.35952
Magnitude (Debye)      :      3.45562



--------------------
Rotational spectrum 
--------------------
 
Rotational constants in cm-1:     0.229528     0.201222     0.107222 
Rotational constants in MHz :  6881.073070  6032.486698  3214.449192 

 Dipole components along the rotational axes: 
x,y,z [a.u.] :     1.297046    -0.407376     0.000000 
x,y,z [Debye]:     3.296830    -1.035466     0.000000 

 
Transforming and storing MO dipole integrals   ... done

                ... starting polarizability calculation

The origin for moment calculation is the CENTER OF MASS  = (-0.340579,  0.682087  0.420996)
Opening the Dipole integral file               ... (piridine_efield_y_0.016.dmo.tmp) done
Reading Dipole-MO integrals                    ... done
Solving CP-SCF equations                       ... 

           ************************************************************
           *        Program running with 16 parallel MPI-processes    *
           *              working on a common directory               *
           ************************************************************

------------------------------------------------------------------------------
                           ORCA CP-SCF CALCULATION
------------------------------------------------------------------------------

Input orbitals are from        ... piridine_efield_y_0.016.gbw
Input Perturbation             ... piridine_efield_y_0.016.cpv.tmp
Wavefunction output            ... piridine_efield_y_0.016.cpu.tmp
Perturbation mode              ... Real perturbation (singlet)
Solver                         ... POPLE
Max. number of iterations      ... 64
Convergence tolerance          ... 3.000e-05
Integral handling              ... Direct
Number of perturbations        ... 3
Number of operators            ... 1
Orbital ranges used for CP-SCF:
 Operator 0:  Orbitals   0... 20  to  21...182
Variables per perturbation     ... 3402
Memory available               ... 1993.8 MB
Memory needed per perturbation ...   1.0 MB
Perturbations treated per batch... 3
Number of batches              ... 1
     CP-SCF ITERATION   0:   2.1745e+00 (   1.2 sec   0/  3 done)
     CP-SCF ITERATION   1:   4.9128e-01 (   1.2 sec   0/  3 done)
     CP-SCF ITERATION   2:   1.3087e-01 (   1.2 sec   0/  3 done)
     CP-SCF ITERATION   3:   5.6776e-02 (   1.2 sec   0/  3 done)
     CP-SCF ITERATION   4:   2.2277e-02 (   1.2 sec   0/  3 done)
     CP-SCF ITERATION   5:   1.0414e-02 (   1.2 sec   0/  3 done)
     CP-SCF ITERATION   6:   3.1814e-03 (   1.2 sec   0/  3 done)
     CP-SCF ITERATION   7:   9.3721e-04 (   1.2 sec   0/  3 done)
     CP-SCF ITERATION   8:   3.8792e-04 (   1.2 sec   1/  3 done)
     CP-SCF ITERATION   9:   8.6267e-05 (   1.0 sec   1/  3 done)
     CP-SCF ITERATION  10:   3.1133e-05 (   1.0 sec   2/  3 done)
     CP-SCF ITERATION  11:   1.6390e-05 (   0.9 sec   3/  3 done)
                    *** THE CP-SCF HAS CONVERGED ***
done
Reading CP-SCF coefficients                    ... done
Doing the polarizability tensor                ... done
Cleaning up                                    ... done

-------------------------
THE POLARIZABILITY TENSOR
-------------------------

The raw cartesian tensor (atomic units):
   40.57148     -0.00000      0.00000  
   -0.00000     83.92465     -0.62830  
    0.00000     -0.62830     66.70960  
diagonalized tensor: 
   40.57148     66.68670     83.94755  

    1.00000     -0.00000     -0.00000  
    0.00000     -0.03642      0.99934  
   -0.00000     -0.99934     -0.03642  

Isotropic polarizability :  63.73525


Timings for individual modules:

Sum of individual times         ...       32.256 sec (=   0.538 min)
GTO integral calculation        ...        2.852 sec (=   0.048 min)   8.8 %
SCF iterations                  ...       12.861 sec (=   0.214 min)  39.9 %
Solution of CP-SCF eqns.        ...       16.543 sec (=   0.276 min)  51.3 %
                             ****ORCA TERMINATED NORMALLY****
TOTAL RUN TIME: 0 days 0 hours 0 minutes 35 seconds 341 msec
