
                                 *****************
                                 * O   R   C   A *
                                 *****************

                                            #,                                       
                                            ###                                      
                                            ####                                     
                                            #####                                    
                                            ######                                   
                                           ########,                                 
                                     ,,################,,,,,                         
                               ,,#################################,,                 
                          ,,##########################################,,             
                       ,#########################################, ''#####,          
                    ,#############################################,,   '####,        
                  ,##################################################,,,,####,       
                ,###########''''           ''''###############################       
              ,#####''   ,,,,##########,,,,          '''####'''          '####       
            ,##' ,,,,###########################,,,                        '##       
           ' ,,###''''                  '''############,,,                           
         ,,##''                                '''############,,,,        ,,,,,,###''
      ,#''                                            '''#######################'''  
     '                                                          ''''####''''         
             ,#######,   #######,   ,#######,      ##                                
            ,#'     '#,  ##    ##  ,#'     '#,    #''#        ######   ,####,        
            ##       ##  ##   ,#'  ##            #'  '#       #        #'  '#        
            ##       ##  #######   ##           ,######,      #####,   #    #        
            '#,     ,#'  ##    ##  '#,     ,#' ,#      #,         ##   #,  ,#        
             '#######'   ##     ##  '#######'  #'      '#     #####' # '####'        



                  #######################################################
                  #                        -***-                        #
                  #          Department of theory and spectroscopy      #
                  #    Directorship and core code : Frank Neese         #
                  #        Max Planck Institute fuer Kohlenforschung    #
                  #                Kaiser Wilhelm Platz 1               #
                  #                 D-45470 Muelheim/Ruhr               #
                  #                      Germany                        #
                  #                                                     #
                  #                  All rights reserved                #
                  #                        -***-                        #
                  #######################################################


                         Program Version 5.0.4 -  RELEASE  -


 With contributions from (in alphabetic order):
   Daniel Aravena         : Magnetic Suceptibility
   Michael Atanasov       : Ab Initio Ligand Field Theory (pilot matlab implementation)
   Alexander A. Auer      : GIAO ZORA, VPT2 properties, NMR spectrum
   Ute Becker             : Parallelization
   Giovanni Bistoni       : ED, misc. LED, open-shell LED, HFLD
   Martin Brehm           : Molecular dynamics
   Dmytro Bykov           : SCF Hessian
   Vijay G. Chilkuri      : MRCI spin determinant printing, contributions to CSF-ICE
   Dipayan Datta          : RHF DLPNO-CCSD density
   Achintya Kumar Dutta   : EOM-CC, STEOM-CC
   Dmitry Ganyushin       : Spin-Orbit,Spin-Spin,Magnetic field MRCI
   Miquel Garcia          : C-PCM and meta-GGA Hessian, CC/C-PCM, Gaussian charge scheme
   Yang Guo               : DLPNO-NEVPT2, F12-NEVPT2, CIM, IAO-localization
   Andreas Hansen         : Spin unrestricted coupled pair/coupled cluster methods
   Benjamin Helmich-Paris : MC-RPA, TRAH-SCF, COSX integrals
   Lee Huntington         : MR-EOM, pCC
   Robert Izsak           : Overlap fitted RIJCOSX, COSX-SCS-MP3, EOM
   Marcus Kettner         : VPT2
   Christian Kollmar      : KDIIS, OOCD, Brueckner-CCSD(T), CCSD density, CASPT2, CASPT2-K
   Simone Kossmann        : Meta GGA functionals, TD-DFT gradient, OOMP2, MP2 Hessian
   Martin Krupicka        : Initial AUTO-CI
   Lucas Lang             : DCDCAS
   Marvin Lechner         : AUTO-CI (C++ implementation), FIC-MRCC
   Dagmar Lenk            : GEPOL surface, SMD
   Dimitrios Liakos       : Extrapolation schemes; Compound Job, initial MDCI parallelization
   Dimitrios Manganas     : Further ROCIS development; embedding schemes
   Dimitrios Pantazis     : SARC Basis sets
   Anastasios Papadopoulos: AUTO-CI, single reference methods and gradients
   Taras Petrenko         : DFT Hessian,TD-DFT gradient, ASA, ECA, R-Raman, ABS, FL, XAS/XES, NRVS
   Peter Pinski           : DLPNO-MP2, DLPNO-MP2 Gradient
   Christoph Reimann      : Effective Core Potentials
   Marius Retegan         : Local ZFS, SOC
   Christoph Riplinger    : Optimizer, TS searches, QM/MM, DLPNO-CCSD(T), (RO)-DLPNO pert. Triples
   Tobias Risthaus        : Range-separated hybrids, TD-DFT gradient, RPA, STAB
   Michael Roemelt        : Original ROCIS implementation
   Masaaki Saitow         : Open-shell DLPNO-CCSD energy and density
   Barbara Sandhoefer     : DKH picture change effects
   Avijit Sen             : IP-ROCIS
   Kantharuban Sivalingam : CASSCF convergence, NEVPT2, FIC-MRCI
   Bernardo de Souza      : ESD, SOC TD-DFT
   Georgi Stoychev        : AutoAux, RI-MP2 NMR, DLPNO-MP2 response
   Willem Van den Heuvel  : Paramagnetic NMR
   Boris Wezisla          : Elementary symmetry handling
   Frank Wennmohs         : Technical directorship


 We gratefully acknowledge several colleagues who have allowed us to
 interface, adapt or use parts of their codes:
   Stefan Grimme, W. Hujo, H. Kruse, P. Pracht,  : VdW corrections, initial TS optimization,
                  C. Bannwarth, S. Ehlert          DFT functionals, gCP, sTDA/sTD-DF
   Ed Valeev, F. Pavosevic, A. Kumar             : LibInt (2-el integral package), F12 methods
   Garnet Chan, S. Sharma, J. Yang, R. Olivares  : DMRG
   Ulf Ekstrom                                   : XCFun DFT Library
   Mihaly Kallay                                 : mrcc  (arbitrary order and MRCC methods)
   Jiri Pittner, Ondrej Demel                    : Mk-CCSD
   Frank Weinhold                                : gennbo (NPA and NBO analysis)
   Christopher J. Cramer and Donald G. Truhlar   : smd solvation model
   Lars Goerigk                                  : TD-DFT with DH, B97 family of functionals
   V. Asgeirsson, H. Jonsson                     : NEB implementation
   FAccTs GmbH                                   : IRC, NEB, NEB-TS, DLPNO-Multilevel, CI-OPT
                                                   MM, QMMM, 2- and 3-layer-ONIOM, Crystal-QMMM,
                                                   LR-CPCM, SF, NACMEs, symmetry and pop. for TD-DFT,
                                                   nearIR, NL-DFT gradient (VV10), updates on ESD,
                                                   ML-optimized integration grids
   S Lehtola, MJT Oliveira, MAL Marques          : LibXC Library
   Liviu Ungur et al                             : ANISO software


 Your calculation uses the libint2 library for the computation of 2-el integrals
 For citations please refer to: http://libint.valeyev.net

 Your ORCA version has been built with support for libXC version: 5.1.0
 For citations please refer to: https://tddft.org/programs/libxc/

 This ORCA versions uses:
   CBLAS   interface :  Fast vector & matrix operations
   LAPACKE interface :  Fast linear algebra routines
   SCALAPACK package :  Parallel linear algebra routines
   Shared memory     :  Shared parallel matrices
   BLAS/LAPACK       :  OpenBLAS 0.3.15  USE64BITINT DYNAMIC_ARCH NO_AFFINITY SkylakeX SINGLE_THREADED
        Core in use  :  SkylakeX
   Copyright (c) 2011-2014, The OpenBLAS Project


================================================================================

----- Orbital basis set information -----
Your calculation utilizes the basis: aug-cc-pVDZ 
    H, B-Ne : Obtained from the ccRepo (grant-hill.group.shef.ac.uk/ccrepo) Feb. 2017
              R. A. Kendall, T. H. Dunning, Jr., R. J. Harrison, J. Chem. Phys. 96, 6796 (1992)
         He : Obtained from the ccRepo (grant-hill.group.shef.ac.uk/ccrepo) Feb. 2017
              D. E. Woon, T. H. Dunning, Jr., J. Chem. Phys. 100, 2975 (1994)
  Li-Be, Na : Obtained from the ccRepo (grant-hill.group.shef.ac.uk/ccrepo) Feb. 2017
              B. P. Prascher, D. E. Woon, K. A. Peterson, T. H. Dunning, Jr., A. K. Wilson, Theor. Chem. Acc. 128, 69 (2011)
         Mg : Obtained from the Peterson Research Group Website (tyr0.chem.wsu.edu/~kipeters) Feb. 2017
              B. P. Prascher, D. E. Woon, K. A. Peterson, T. H. Dunning, Jr., A. K. Wilson, Theor. Chem. Acc. 128, 69 (2011)
      Al-Ar : Obtained from the ccRepo (grant-hill.group.shef.ac.uk/ccrepo) Feb. 2017
              D. E. Woon, T. H. Dunning, Jr., J. Chem. Phys. 98, 1358 (1993)
      Sc-Zn : Obtained from the ccRepo (grant-hill.group.shef.ac.uk/ccrepo) Feb. 2017
              N. B. Balabanov, K. A. Peterson, J. Chem. Phys. 123, 064107 (2005)
              N. B. Balabanov, K. A. Peterson, J. Chem. Phys. 125, 074110 (2006)
      Ga-Kr : Obtained from the ccRepo (grant-hill.group.shef.ac.uk/ccrepo) Feb. 2017
              A. K. Wilson, D. E. Woon, K. A. Peterson, T. H. Dunning, Jr., J. Chem. Phys. 110, 7667 (1999)

================================================================================
                                        WARNINGS
                       Please study these warnings very carefully!
================================================================================


INFO   : the flag for use of the SHARK integral package has been found!

================================================================================
                                       INPUT FILE
================================================================================
NAME = piridine_efield_z_0.016.inp
|  1> ! hf aug-cc-pVDZ
|  2> ! MiniPrint VeryTightSCF
|  3> %pal
|  4>  nprocs 16
|  5> end
|  6> %MaxCore 2000
|  7> %scf
|  8>  maxiter=200
|  9>  efield 0.0 , 0.0 , 0.016
| 10> end
| 11> %elprop
| 12>   polar 1
| 13> end
| 14> * xyz 0 1
| 15> C       -0.180226841      0.360945118     -1.120304970
| 16> C       -0.180226841      1.559292118     -0.407860970
| 17> C       -0.180226841      1.503191118      0.986935030
| 18> N       -0.180226841      0.360945118      1.29018350
| 19> C       -0.180226841     -0.781300882      0.986935030
| 20> C       -0.180226841     -0.837401882     -0.407860970
| 21> H       -0.180226841      0.360945118     -2.206546970
| 22> H       -0.180226841      2.517950118     -0.917077970
| 23> H       -0.180226841      2.421289118      1.572099030
| 24> H       -0.180226841     -1.699398882      1.572099030
| 25> H       -0.180226841     -1.796059882     -0.917077970
| 26> *
| 27> 
| 28>                          ****END OF INPUT****
================================================================================

                       ****************************
                       * Single Point Calculation *
                       ****************************

---------------------------------
CARTESIAN COORDINATES (ANGSTROEM)
---------------------------------
  C     -0.180227    0.360945   -1.120305
  C     -0.180227    1.559292   -0.407861
  C     -0.180227    1.503191    0.986935
  N     -0.180227    0.360945    1.290183
  C     -0.180227   -0.781301    0.986935
  C     -0.180227   -0.837402   -0.407861
  H     -0.180227    0.360945   -2.206547
  H     -0.180227    2.517950   -0.917078
  H     -0.180227    2.421289    1.572099
  H     -0.180227   -1.699399    1.572099
  H     -0.180227   -1.796060   -0.917078

----------------------------
CARTESIAN COORDINATES (A.U.)
----------------------------
  NO LB      ZA    FRAG     MASS         X           Y           Z
   0 C     6.0000    0    12.011   -0.340579    0.682087   -2.117070
   1 C     6.0000    0    12.011   -0.340579    2.946635   -0.770746
   2 C     6.0000    0    12.011   -0.340579    2.840620    1.865037
   3 N     7.0000    0    14.007   -0.340579    0.682087    2.438093
   4 C     6.0000    0    12.011   -0.340579   -1.476445    1.865037
   5 C     6.0000    0    12.011   -0.340579   -1.582460   -0.770746
   6 H     1.0000    0     1.008   -0.340579    0.682087   -4.169769
   7 H     1.0000    0     1.008   -0.340579    4.758236   -1.733026
   8 H     1.0000    0     1.008   -0.340579    4.575573    2.970837
   9 H     1.0000    0     1.008   -0.340579   -3.211398    2.970837
  10 H     1.0000    0     1.008   -0.340579   -3.394061   -1.733026



           ************************************************************
           *        Program running with 16 parallel MPI-processes    *
           *              working on a common directory               *
           ************************************************************
------------------------------------------------------------------------------
                   ___                                                        
                  /   \      - P O W E R E D   B Y -                         
                 /     \                                                     
                 |  |  |   _    _      __       _____    __    __             
                 |  |  |  | |  | |    /  \     |  _  \  |  |  /  |          
                  \  \/   | |  | |   /    \    | | | |  |  | /  /          
                 / \  \   | |__| |  /  /\  \   | |_| |  |  |/  /          
                |  |  |   |  __  | /  /__\  \  |    /   |      \           
                |  |  |   | |  | | |   __   |  |    \   |  |\   \          
                \     /   | |  | | |  |  |  |  | |\  \  |  | \   \       
                 \___/    |_|  |_| |__|  |__|  |_| \__\ |__|  \__/        
                                                                              
                      - O R C A' S   B I G   F R I E N D -                    
                                      &                                       
                       - I N T E G R A L  F E E D E R -                       
                                                                              
 v1 FN, 2020, v2 2021                                                         
------------------------------------------------------------------------------


Reading SHARK input file piridine_efield_z_0.016.SHARKINP.tmp ... ok
----------------------
SHARK INTEGRAL PACKAGE
----------------------

Number of atoms                             ...     11
Number of basis functions                   ...    219
Number of shells                            ...    115
Maximum angular momentum                    ...      2
Integral batch strategy                     ... SHARK/LIBINT Hybrid
RI-J (if used) integral strategy            ... SPLIT-RIJ (Revised 2003 algorithm where possible)
Printlevel                                  ...      1
Contraction scheme used                     ... PARTIAL GENERAL contraction
Coulomb Range Separation                    ... NOT USED
Exchange Range Separation                   ... NOT USED
Finite Nucleus Model                        ... NOT USED
Auxiliary Coulomb fitting basis             ... NOT available
Auxiliary J/K fitting basis                 ... NOT available
Auxiliary Correlation fitting basis         ... NOT available
Auxiliary 'external' fitting basis          ... NOT available
Integral threshold                          ...     1.000000e-12
Primitive cut-off                           ...     1.000000e-14
Primitive pair pre-selection threshold      ...     1.000000e-14

Calculating pre-screening integrals         ... done (  0.0 sec) Dimension = 115
Calculating pre-screening integrals (ORCA)  ... done (  0.1 sec) Dimension = 79
Organizing shell pair data                  ... done (  0.0 sec)
Shell pair information
Total number of shell pairs                 ...      6670
Shell pairs after pre-screening             ...      6002
Total number of primitive shell pairs       ...      9486
Primitive shell pairs kept                  ...      8107
          la=0 lb=0:   2207 shell pairs
          la=1 lb=0:   2075 shell pairs
          la=1 lb=1:    406 shell pairs
          la=2 lb=0:    900 shell pairs
          la=2 lb=1:    336 shell pairs
          la=2 lb=2:     78 shell pairs

Calculating one electron integrals          ... done (  0.0 sec)
Calculating Nuclear repulsion               ... done (  0.0 sec) ENN=    214.850568283403 Eh

SHARK setup successfully completed in   0.2 seconds

Maximum memory used throughout the entire GTOINT-calculation: 15.5 MB

An Electric Field will be added: 0.000e+00 0.000e+00 1.600e-02 au

  ... done adding electric field perturbation



           ************************************************************
           *        Program running with 16 parallel MPI-processes    *
           *              working on a common directory               *
           ************************************************************

Diagonalization of the overlap matrix:
Smallest eigenvalue                        ... 1.248e-05
Time for diagonalization                   ...    0.004 sec
Threshold for overlap eigenvalues          ... 1.000e-08
Number of eigenvalues below threshold      ... 0
Time for construction of square roots      ...    0.011 sec
Total time needed                          ...    0.016 sec

Time for model grid setup =    0.050 sec

Loading Hartree-Fock densities                     ... done
Calculating cut-offs                               ... done
Initializing the effective Hamiltonian             ... done
Setting up the integral package (SHARK)            ... done
Starting the Coulomb interaction                   ... done (   0.0 sec)
Reading the grid                                   ... done
Mapping shells                                     ... done
Starting the XC term evaluation                    ... done (   0.0 sec)
Transforming the Hamiltonian                       ... done (   0.0 sec)
Diagonalizing the Hamiltonian                      ... done (   0.0 sec)
Back transforming the eigenvectors                 ... done (   0.0 sec)
Now organizing SCF variables                       ... done
--------------
SCF ITERATIONS
--------------
ITER       Energy         Delta-E        Max-DP      RMS-DP      [F,P]     Damp
               ***  Starting incremental Fock matrix formation  ***
  0   -246.3551753541   0.000000000000 0.59737843  0.01351692  0.2528484 0.7000
  1   -246.4463667208  -0.091191366696 0.45739416  0.01011051  0.1641258 0.7000
                               ***Turning on DIIS***
  2   -246.5012069149  -0.054840194069 1.09624311  0.02360743  0.0994172 0.0000
  3   -245.9694179184   0.531788996414 0.02853633  0.00116715  0.0373304 0.0000
  4   -246.5693070166  -0.599889098126 0.03807377  0.00059801  0.0056615 0.0000
                      *** Initiating the SOSCF procedure ***
                           *** Shutting down DIIS ***
                      *** Re-Reading the Fockian *** 
                      *** Removing any level shift *** 
ITER      Energy       Delta-E        Grad      Rot      Max-DP    RMS-DP
  5   -246.60135366  -0.0320466430  0.001367  0.001367  0.013412  0.000269
               *** Restarting incremental Fock matrix formation ***
  6   -246.61414794  -0.0127942821  0.000537  0.001228  0.006161  0.000169
  7   -246.61416721  -0.0000192693  0.000408  0.001934  0.005363  0.000150
  8   -246.61417506  -0.0000078521  0.000154  0.000345  0.001456  0.000041
  9   -246.61417602  -0.0000009592  0.000061  0.000196  0.001222  0.000032
 10   -246.61417627  -0.0000002468  0.000020  0.000052  0.000174  0.000005
 11   -246.61417629  -0.0000000191  0.000004  0.000006  0.000065  0.000002
 12   -246.61417629  -0.0000000014  0.000002  0.000004  0.000030  0.000001
 13   -246.61417629  -0.0000000001  0.000001  0.000001  0.000009  0.000000
                  ***Gradient check signals convergence***
              ***Rediagonalizing the Fockian in SOSCF/NRSCF***

               *****************************************************
               *                     SUCCESS                       *
               *           SCF CONVERGED AFTER  14 CYCLES          *
               *****************************************************

Total Energy       :         -246.61417629 Eh           -6710.71290 eV
  Last Energy change         ...    3.9847e-11  Tolerance :   1.0000e-09
  Last MAX-Density change    ...    2.4162e-06  Tolerance :   1.0000e-08
             **** THE GBW FILE WAS UPDATED (piridine_efield_z_0.016.gbw) ****
             **** DENSITY piridine_efield_z_0.016.scfp WAS UPDATED ****
             **** ENERGY FILE WAS UPDATED (piridine_efield_z_0.016.en.tmp) ****
             **** THE GBW FILE WAS UPDATED (piridine_efield_z_0.016.gbw) ****
             **** DENSITY piridine_efield_z_0.016.scfp WAS UPDATED ****
----------------
ORBITAL ENERGIES
----------------

  NO   OCC          E(Eh)            E(eV) 
   0   2.0000     -15.518546      -422.2811 
   1   2.0000     -11.268967      -306.6442 
   2   2.0000     -11.268929      -306.6431 
   3   2.0000     -11.267732      -306.6106 
   4   2.0000     -11.249545      -306.1157 
   5   2.0000     -11.249496      -306.1144 
   6   2.0000      -1.337360       -36.3914 
   7   2.0000      -1.086621       -29.5685 
   8   2.0000      -1.080665       -29.4064 
   9   2.0000      -0.889962       -24.2171 
  10   2.0000      -0.848989       -23.1022 
  11   2.0000      -0.744922       -20.2704 
  12   2.0000      -0.699491       -19.0341 
  13   2.0000      -0.652177       -17.7466 
  14   2.0000      -0.600783       -16.3481 
  15   2.0000      -0.590028       -16.0555 
  16   2.0000      -0.587576       -15.9888 
  17   2.0000      -0.543508       -14.7896 
  18   2.0000      -0.397525       -10.8172 
  19   2.0000      -0.348881        -9.4935 
  20   2.0000      -0.322016        -8.7625 
  21   0.0000      -0.090188        -2.4541 
  22   0.0000      -0.029409        -0.8003 
  23   0.0000      -0.012819        -0.3488 
  24   0.0000       0.062890         1.7113 
  25   0.0000       0.065851         1.7919 
  26   0.0000       0.069698         1.8966 
  27   0.0000       0.088592         2.4107 
  28   0.0000       0.090045         2.4503 
  29   0.0000       0.093816         2.5529 
  30   0.0000       0.095661         2.6031 
  31   0.0000       0.106359         2.8942 
  32   0.0000       0.121145         3.2965 
  33   0.0000       0.134212         3.6521 
  34   0.0000       0.139047         3.7837 
  35   0.0000       0.163160         4.4398 
  36   0.0000       0.167886         4.5684 
  37   0.0000       0.169046         4.6000 
  38   0.0000       0.181902         4.9498 
  39   0.0000       0.185220         5.0401 
  40   0.0000       0.207473         5.6456 
  41   0.0000       0.215267         5.8577 
  42   0.0000       0.224403         6.1063 
  43   0.0000       0.226313         6.1583 
  44   0.0000       0.252745         6.8776 
  45   0.0000       0.275364         7.4930 
  46   0.0000       0.288573         7.8525 
  47   0.0000       0.296684         8.0732 
  48   0.0000       0.300158         8.1677 
  49   0.0000       0.304728         8.2921 
  50   0.0000       0.325931         8.8690 
  51   0.0000       0.327162         8.9025 
  52   0.0000       0.334959         9.1147 
  53   0.0000       0.351358         9.5609 
  54   0.0000       0.353659         9.6236 
  55   0.0000       0.358805         9.7636 
  56   0.0000       0.362026         9.8512 
  57   0.0000       0.378149        10.2900 
  58   0.0000       0.400337        10.8937 
  59   0.0000       0.419124        11.4050 
  60   0.0000       0.428991        11.6734 
  61   0.0000       0.436404        11.8751 
  62   0.0000       0.443578        12.0704 
  63   0.0000       0.453198        12.3321 
  64   0.0000       0.462799        12.5934 
  65   0.0000       0.510357        13.8875 
  66   0.0000       0.534710        14.5502 
  67   0.0000       0.536668        14.6035 
  68   0.0000       0.545040        14.8313 
  69   0.0000       0.554904        15.0997 
  70   0.0000       0.575297        15.6546 
  71   0.0000       0.576981        15.7004 
  72   0.0000       0.591703        16.1010 
  73   0.0000       0.600886        16.3509 
  74   0.0000       0.613732        16.7005 
  75   0.0000       0.615396        16.7458 
  76   0.0000       0.636904        17.3310 
  77   0.0000       0.646414        17.5898 
  78   0.0000       0.660814        17.9817 
  79   0.0000       0.677932        18.4475 
  80   0.0000       0.681196        18.5363 
  81   0.0000       0.691039        18.8041 
  82   0.0000       0.695900        18.9364 
  83   0.0000       0.696701        18.9582 
  84   0.0000       0.705895        19.2084 
  85   0.0000       0.721731        19.6393 
  86   0.0000       0.729365        19.8470 
  87   0.0000       0.732949        19.9446 
  88   0.0000       0.734065        19.9749 
  89   0.0000       0.766897        20.8683 
  90   0.0000       0.817124        22.2351 
  91   0.0000       0.819778        22.3073 
  92   0.0000       0.841676        22.9032 
  93   0.0000       0.845110        22.9966 
  94   0.0000       0.858520        23.3615 
  95   0.0000       0.872041        23.7295 
  96   0.0000       0.878460        23.9041 
  97   0.0000       0.879425        23.9304 
  98   0.0000       0.913492        24.8574 
  99   0.0000       0.918334        24.9891 
 100   0.0000       0.929547        25.2943 
 101   0.0000       0.955422        25.9984 
 102   0.0000       0.977875        26.6093 
 103   0.0000       0.999997        27.2113 
 104   0.0000       1.022836        27.8328 
 105   0.0000       1.047453        28.5027 
 106   0.0000       1.095250        29.8033 
 107   0.0000       1.115940        30.3663 
 108   0.0000       1.116940        30.3935 
 109   0.0000       1.124185        30.5906 
 110   0.0000       1.128970        30.7208 
 111   0.0000       1.155478        31.4422 
 112   0.0000       1.174671        31.9644 
 113   0.0000       1.233491        33.5650 
 114   0.0000       1.351961        36.7887 
 115   0.0000       1.359294        36.9883 
 116   0.0000       1.360097        37.0101 
 117   0.0000       1.399148        38.0728 
 118   0.0000       1.407254        38.2933 
 119   0.0000       1.464261        39.8446 
 120   0.0000       1.500306        40.8254 
 121   0.0000       1.513736        41.1908 
 122   0.0000       1.517917        41.3046 
 123   0.0000       1.523875        41.4667 
 124   0.0000       1.575008        42.8582 
 125   0.0000       1.593051        43.3491 
 126   0.0000       1.599998        43.5382 
 127   0.0000       1.626123        44.2491 
 128   0.0000       1.666163        45.3386 
 129   0.0000       1.680472        45.7280 
 130   0.0000       1.686029        45.8792 
 131   0.0000       1.702780        46.3350 
 132   0.0000       1.703886        46.3651 
 133   0.0000       1.747085        47.5406 
 134   0.0000       1.810050        49.2540 
 135   0.0000       1.815403        49.3996 
 136   0.0000       1.835709        49.9522 
 137   0.0000       1.857744        50.5518 
 138   0.0000       1.885429        51.3051 
 139   0.0000       1.896036        51.5938 
 140   0.0000       1.953783        53.1651 
 141   0.0000       1.954144        53.1750 
 142   0.0000       1.992754        54.2256 
 143   0.0000       2.012848        54.7724 
 144   0.0000       2.060788        56.0769 
 145   0.0000       2.084929        56.7338 
 146   0.0000       2.121732        57.7353 
 147   0.0000       2.136717        58.1430 
 148   0.0000       2.158017        58.7226 
 149   0.0000       2.161200        58.8092 
 150   0.0000       2.211284        60.1721 
 151   0.0000       2.244332        61.0714 
 152   0.0000       2.251356        61.2625 
 153   0.0000       2.272126        61.8277 
 154   0.0000       2.325614        63.2832 
 155   0.0000       2.337528        63.6074 
 156   0.0000       2.345565        63.8261 
 157   0.0000       2.372787        64.5668 
 158   0.0000       2.417082        65.7721 
 159   0.0000       2.441091        66.4255 
 160   0.0000       2.462532        67.0089 
 161   0.0000       2.531494        68.8854 
 162   0.0000       2.553588        69.4866 
 163   0.0000       2.588151        70.4272 
 164   0.0000       2.638650        71.8013 
 165   0.0000       2.751735        74.8785 
 166   0.0000       2.822679        76.8090 
 167   0.0000       2.835659        77.1622 
 168   0.0000       2.855287        77.6963 
 169   0.0000       2.898030        78.8594 
 170   0.0000       2.940331        80.0105 
 171   0.0000       2.943218        80.0890 
 172   0.0000       2.980098        81.0926 
 173   0.0000       3.086649        83.9920 
 174   0.0000       3.147829        85.6568 
 175   0.0000       3.196746        86.9879 
 176   0.0000       3.301494        89.8382 
 177   0.0000       3.460279        94.1590 
 178   0.0000       3.512166        95.5709 
 179   0.0000       3.613474        98.3276 
 180   0.0000       3.950968       107.5113 
 181   0.0000       3.958897       107.7271 
 182   0.0000       4.508595       122.6851 
Total SCF time: 0 days 0 hours 0 min 10 sec 

Maximum memory used throughout the entire SCF-calculation: 229.7 MB

-------------------------   --------------------
FINAL SINGLE POINT ENERGY      -246.614176289820
-------------------------   --------------------


                            ***************************************
                            *     ORCA property calculations      *
                            ***************************************

                                    ---------------------
                                    Active property flags
                                    ---------------------
   (+) Dipole Moment
   (+) Polarizability


------------------------------------------------------------------------------
                       ORCA ELECTRIC PROPERTIES CALCULATION
------------------------------------------------------------------------------

Dipole Moment Calculation                       ... on
Quadrupole Moment Calculation                   ... off
Polarizability Calculation                      ... Analytic (CP-SCF)
GBWName                                         ... piridine_efield_z_0.016.gbw
Electron density                                ... piridine_efield_z_0.016.scfp
The origin for moment calculation is the CENTER OF MASS  = (-0.340579,  0.682087  0.420996)

-------------
DIPOLE MOMENT
-------------
                                X             Y             Z
Electronic contribution:      0.00000      -0.00000       2.53523
Nuclear contribution   :      0.00000      -0.00000      -1.88024
                        -----------------------------------------
Total Dipole Moment    :      0.00000      -0.00000       0.65498
                        -----------------------------------------
Magnitude (a.u.)       :      0.65498
Magnitude (Debye)      :      1.66484



--------------------
Rotational spectrum 
--------------------
 
Rotational constants in cm-1:     0.229528     0.201222     0.107222 
Rotational constants in MHz :  6881.073070  6032.486698  3214.449192 

 Dipole components along the rotational axes: 
x,y,z [a.u.] :    -0.000000     0.654983    -0.000000 
x,y,z [Debye]:    -0.000000     1.664836    -0.000000 

 
Transforming and storing MO dipole integrals   ... done

                ... starting polarizability calculation

The origin for moment calculation is the CENTER OF MASS  = (-0.340579,  0.682087  0.420996)
Opening the Dipole integral file               ... (piridine_efield_z_0.016.dmo.tmp) done
Reading Dipole-MO integrals                    ... done
Solving CP-SCF equations                       ... 

           ************************************************************
           *        Program running with 16 parallel MPI-processes    *
           *              working on a common directory               *
           ************************************************************

------------------------------------------------------------------------------
                           ORCA CP-SCF CALCULATION
------------------------------------------------------------------------------

Input orbitals are from        ... piridine_efield_z_0.016.gbw
Input Perturbation             ... piridine_efield_z_0.016.cpv.tmp
Wavefunction output            ... piridine_efield_z_0.016.cpu.tmp
Perturbation mode              ... Real perturbation (singlet)
Solver                         ... POPLE
Max. number of iterations      ... 64
Convergence tolerance          ... 3.000e-05
Integral handling              ... Direct
Number of perturbations        ... 3
Number of operators            ... 1
Orbital ranges used for CP-SCF:
 Operator 0:  Orbitals   0... 20  to  21...182
Variables per perturbation     ... 3402
Memory available               ... 1993.8 MB
Memory needed per perturbation ...   1.0 MB
Perturbations treated per batch... 3
Number of batches              ... 1
     CP-SCF ITERATION   0:   2.0900e+00 (   1.1 sec   0/  3 done)
     CP-SCF ITERATION   1:   4.2209e-01 (   1.2 sec   0/  3 done)
     CP-SCF ITERATION   2:   1.2247e-01 (   1.2 sec   0/  3 done)
     CP-SCF ITERATION   3:   5.3902e-02 (   1.2 sec   0/  3 done)
     CP-SCF ITERATION   4:   2.2193e-02 (   1.2 sec   0/  3 done)
     CP-SCF ITERATION   5:   9.6705e-03 (   1.2 sec   0/  3 done)
     CP-SCF ITERATION   6:   2.7186e-03 (   1.2 sec   0/  3 done)
     CP-SCF ITERATION   7:   6.0023e-04 (   1.2 sec   0/  3 done)
     CP-SCF ITERATION   8:   1.9873e-04 (   1.2 sec   1/  3 done)
     CP-SCF ITERATION   9:   4.7012e-05 (   1.0 sec   2/  3 done)
     CP-SCF ITERATION  10:   1.0784e-05 (   0.8 sec   3/  3 done)
                    *** THE CP-SCF HAS CONVERGED ***
done
Reading CP-SCF coefficients                    ... done
Doing the polarizability tensor                ... done
Cleaning up                                    ... done

-------------------------
THE POLARIZABILITY TENSOR
-------------------------

The raw cartesian tensor (atomic units):
   40.63085     -0.00000      0.00000  
   -0.00000     80.25777      0.00000  
    0.00000      0.00000     66.84913  
diagonalized tensor: 
   40.63085     66.84913     80.25777  

    1.00000     -0.00000     -0.00000  
    0.00000      0.00000      1.00000  
   -0.00000     -1.00000      0.00000  

Isotropic polarizability :  62.57925


Timings for individual modules:

Sum of individual times         ...       30.808 sec (=   0.513 min)
GTO integral calculation        ...        2.788 sec (=   0.046 min)   9.0 %
SCF iterations                  ...       12.615 sec (=   0.210 min)  40.9 %
Solution of CP-SCF eqns.        ...       15.405 sec (=   0.257 min)  50.0 %
                             ****ORCA TERMINATED NORMALLY****
TOTAL RUN TIME: 0 days 0 hours 0 minutes 33 seconds 966 msec
