
                                 *****************
                                 * O   R   C   A *
                                 *****************

                                            #,                                       
                                            ###                                      
                                            ####                                     
                                            #####                                    
                                            ######                                   
                                           ########,                                 
                                     ,,################,,,,,                         
                               ,,#################################,,                 
                          ,,##########################################,,             
                       ,#########################################, ''#####,          
                    ,#############################################,,   '####,        
                  ,##################################################,,,,####,       
                ,###########''''           ''''###############################       
              ,#####''   ,,,,##########,,,,          '''####'''          '####       
            ,##' ,,,,###########################,,,                        '##       
           ' ,,###''''                  '''############,,,                           
         ,,##''                                '''############,,,,        ,,,,,,###''
      ,#''                                            '''#######################'''  
     '                                                          ''''####''''         
             ,#######,   #######,   ,#######,      ##                                
            ,#'     '#,  ##    ##  ,#'     '#,    #''#        ######   ,####,        
            ##       ##  ##   ,#'  ##            #'  '#       #        #'  '#        
            ##       ##  #######   ##           ,######,      #####,   #    #        
            '#,     ,#'  ##    ##  '#,     ,#' ,#      #,         ##   #,  ,#        
             '#######'   ##     ##  '#######'  #'      '#     #####' # '####'        



                  #######################################################
                  #                        -***-                        #
                  #          Department of theory and spectroscopy      #
                  #    Directorship and core code : Frank Neese         #
                  #        Max Planck Institute fuer Kohlenforschung    #
                  #                Kaiser Wilhelm Platz 1               #
                  #                 D-45470 Muelheim/Ruhr               #
                  #                      Germany                        #
                  #                                                     #
                  #                  All rights reserved                #
                  #                        -***-                        #
                  #######################################################


                         Program Version 5.0.4 -  RELEASE  -


 With contributions from (in alphabetic order):
   Daniel Aravena         : Magnetic Suceptibility
   Michael Atanasov       : Ab Initio Ligand Field Theory (pilot matlab implementation)
   Alexander A. Auer      : GIAO ZORA, VPT2 properties, NMR spectrum
   Ute Becker             : Parallelization
   Giovanni Bistoni       : ED, misc. LED, open-shell LED, HFLD
   Martin Brehm           : Molecular dynamics
   Dmytro Bykov           : SCF Hessian
   Vijay G. Chilkuri      : MRCI spin determinant printing, contributions to CSF-ICE
   Dipayan Datta          : RHF DLPNO-CCSD density
   Achintya Kumar Dutta   : EOM-CC, STEOM-CC
   Dmitry Ganyushin       : Spin-Orbit,Spin-Spin,Magnetic field MRCI
   Miquel Garcia          : C-PCM and meta-GGA Hessian, CC/C-PCM, Gaussian charge scheme
   Yang Guo               : DLPNO-NEVPT2, F12-NEVPT2, CIM, IAO-localization
   Andreas Hansen         : Spin unrestricted coupled pair/coupled cluster methods
   Benjamin Helmich-Paris : MC-RPA, TRAH-SCF, COSX integrals
   Lee Huntington         : MR-EOM, pCC
   Robert Izsak           : Overlap fitted RIJCOSX, COSX-SCS-MP3, EOM
   Marcus Kettner         : VPT2
   Christian Kollmar      : KDIIS, OOCD, Brueckner-CCSD(T), CCSD density, CASPT2, CASPT2-K
   Simone Kossmann        : Meta GGA functionals, TD-DFT gradient, OOMP2, MP2 Hessian
   Martin Krupicka        : Initial AUTO-CI
   Lucas Lang             : DCDCAS
   Marvin Lechner         : AUTO-CI (C++ implementation), FIC-MRCC
   Dagmar Lenk            : GEPOL surface, SMD
   Dimitrios Liakos       : Extrapolation schemes; Compound Job, initial MDCI parallelization
   Dimitrios Manganas     : Further ROCIS development; embedding schemes
   Dimitrios Pantazis     : SARC Basis sets
   Anastasios Papadopoulos: AUTO-CI, single reference methods and gradients
   Taras Petrenko         : DFT Hessian,TD-DFT gradient, ASA, ECA, R-Raman, ABS, FL, XAS/XES, NRVS
   Peter Pinski           : DLPNO-MP2, DLPNO-MP2 Gradient
   Christoph Reimann      : Effective Core Potentials
   Marius Retegan         : Local ZFS, SOC
   Christoph Riplinger    : Optimizer, TS searches, QM/MM, DLPNO-CCSD(T), (RO)-DLPNO pert. Triples
   Tobias Risthaus        : Range-separated hybrids, TD-DFT gradient, RPA, STAB
   Michael Roemelt        : Original ROCIS implementation
   Masaaki Saitow         : Open-shell DLPNO-CCSD energy and density
   Barbara Sandhoefer     : DKH picture change effects
   Avijit Sen             : IP-ROCIS
   Kantharuban Sivalingam : CASSCF convergence, NEVPT2, FIC-MRCI
   Bernardo de Souza      : ESD, SOC TD-DFT
   Georgi Stoychev        : AutoAux, RI-MP2 NMR, DLPNO-MP2 response
   Willem Van den Heuvel  : Paramagnetic NMR
   Boris Wezisla          : Elementary symmetry handling
   Frank Wennmohs         : Technical directorship


 We gratefully acknowledge several colleagues who have allowed us to
 interface, adapt or use parts of their codes:
   Stefan Grimme, W. Hujo, H. Kruse, P. Pracht,  : VdW corrections, initial TS optimization,
                  C. Bannwarth, S. Ehlert          DFT functionals, gCP, sTDA/sTD-DF
   Ed Valeev, F. Pavosevic, A. Kumar             : LibInt (2-el integral package), F12 methods
   Garnet Chan, S. Sharma, J. Yang, R. Olivares  : DMRG
   Ulf Ekstrom                                   : XCFun DFT Library
   Mihaly Kallay                                 : mrcc  (arbitrary order and MRCC methods)
   Jiri Pittner, Ondrej Demel                    : Mk-CCSD
   Frank Weinhold                                : gennbo (NPA and NBO analysis)
   Christopher J. Cramer and Donald G. Truhlar   : smd solvation model
   Lars Goerigk                                  : TD-DFT with DH, B97 family of functionals
   V. Asgeirsson, H. Jonsson                     : NEB implementation
   FAccTs GmbH                                   : IRC, NEB, NEB-TS, DLPNO-Multilevel, CI-OPT
                                                   MM, QMMM, 2- and 3-layer-ONIOM, Crystal-QMMM,
                                                   LR-CPCM, SF, NACMEs, symmetry and pop. for TD-DFT,
                                                   nearIR, NL-DFT gradient (VV10), updates on ESD,
                                                   ML-optimized integration grids
   S Lehtola, MJT Oliveira, MAL Marques          : LibXC Library
   Liviu Ungur et al                             : ANISO software


 Your calculation uses the libint2 library for the computation of 2-el integrals
 For citations please refer to: http://libint.valeyev.net

 Your ORCA version has been built with support for libXC version: 5.1.0
 For citations please refer to: https://tddft.org/programs/libxc/

 This ORCA versions uses:
   CBLAS   interface :  Fast vector & matrix operations
   LAPACKE interface :  Fast linear algebra routines
   SCALAPACK package :  Parallel linear algebra routines
   Shared memory     :  Shared parallel matrices
   BLAS/LAPACK       :  OpenBLAS 0.3.15  USE64BITINT DYNAMIC_ARCH NO_AFFINITY SkylakeX SINGLE_THREADED
        Core in use  :  SkylakeX
   Copyright (c) 2011-2014, The OpenBLAS Project


================================================================================

----- Orbital basis set information -----
Your calculation utilizes the basis: aug-cc-pVDZ 
    H, B-Ne : Obtained from the ccRepo (grant-hill.group.shef.ac.uk/ccrepo) Feb. 2017
              R. A. Kendall, T. H. Dunning, Jr., R. J. Harrison, J. Chem. Phys. 96, 6796 (1992)
         He : Obtained from the ccRepo (grant-hill.group.shef.ac.uk/ccrepo) Feb. 2017
              D. E. Woon, T. H. Dunning, Jr., J. Chem. Phys. 100, 2975 (1994)
  Li-Be, Na : Obtained from the ccRepo (grant-hill.group.shef.ac.uk/ccrepo) Feb. 2017
              B. P. Prascher, D. E. Woon, K. A. Peterson, T. H. Dunning, Jr., A. K. Wilson, Theor. Chem. Acc. 128, 69 (2011)
         Mg : Obtained from the Peterson Research Group Website (tyr0.chem.wsu.edu/~kipeters) Feb. 2017
              B. P. Prascher, D. E. Woon, K. A. Peterson, T. H. Dunning, Jr., A. K. Wilson, Theor. Chem. Acc. 128, 69 (2011)
      Al-Ar : Obtained from the ccRepo (grant-hill.group.shef.ac.uk/ccrepo) Feb. 2017
              D. E. Woon, T. H. Dunning, Jr., J. Chem. Phys. 98, 1358 (1993)
      Sc-Zn : Obtained from the ccRepo (grant-hill.group.shef.ac.uk/ccrepo) Feb. 2017
              N. B. Balabanov, K. A. Peterson, J. Chem. Phys. 123, 064107 (2005)
              N. B. Balabanov, K. A. Peterson, J. Chem. Phys. 125, 074110 (2006)
      Ga-Kr : Obtained from the ccRepo (grant-hill.group.shef.ac.uk/ccrepo) Feb. 2017
              A. K. Wilson, D. E. Woon, K. A. Peterson, T. H. Dunning, Jr., J. Chem. Phys. 110, 7667 (1999)

================================================================================
                                        WARNINGS
                       Please study these warnings very carefully!
================================================================================


INFO   : the flag for use of the SHARK integral package has been found!

================================================================================
                                       INPUT FILE
================================================================================
NAME = piridine_efield_x_-0.004.inp
|  1> ! hf aug-cc-pVDZ
|  2> ! MiniPrint VeryTightSCF
|  3> %pal
|  4>  nprocs 16
|  5> end
|  6> %MaxCore 2000
|  7> %scf
|  8>  maxiter=200
|  9>  efield -0.004 , 0.0 , 0.0
| 10> end
| 11> %elprop
| 12>   polar 1
| 13> end
| 14> * xyz 0 1
| 15> C       -0.180226841      0.360945118     -1.120304970
| 16> C       -0.180226841      1.559292118     -0.407860970
| 17> C       -0.180226841      1.503191118      0.986935030
| 18> N       -0.180226841      0.360945118      1.29018350
| 19> C       -0.180226841     -0.781300882      0.986935030
| 20> C       -0.180226841     -0.837401882     -0.407860970
| 21> H       -0.180226841      0.360945118     -2.206546970
| 22> H       -0.180226841      2.517950118     -0.917077970
| 23> H       -0.180226841      2.421289118      1.572099030
| 24> H       -0.180226841     -1.699398882      1.572099030
| 25> H       -0.180226841     -1.796059882     -0.917077970
| 26> *
| 27> 
| 28>                          ****END OF INPUT****
================================================================================

                       ****************************
                       * Single Point Calculation *
                       ****************************

---------------------------------
CARTESIAN COORDINATES (ANGSTROEM)
---------------------------------
  C     -0.180227    0.360945   -1.120305
  C     -0.180227    1.559292   -0.407861
  C     -0.180227    1.503191    0.986935
  N     -0.180227    0.360945    1.290183
  C     -0.180227   -0.781301    0.986935
  C     -0.180227   -0.837402   -0.407861
  H     -0.180227    0.360945   -2.206547
  H     -0.180227    2.517950   -0.917078
  H     -0.180227    2.421289    1.572099
  H     -0.180227   -1.699399    1.572099
  H     -0.180227   -1.796060   -0.917078

----------------------------
CARTESIAN COORDINATES (A.U.)
----------------------------
  NO LB      ZA    FRAG     MASS         X           Y           Z
   0 C     6.0000    0    12.011   -0.340579    0.682087   -2.117070
   1 C     6.0000    0    12.011   -0.340579    2.946635   -0.770746
   2 C     6.0000    0    12.011   -0.340579    2.840620    1.865037
   3 N     7.0000    0    14.007   -0.340579    0.682087    2.438093
   4 C     6.0000    0    12.011   -0.340579   -1.476445    1.865037
   5 C     6.0000    0    12.011   -0.340579   -1.582460   -0.770746
   6 H     1.0000    0     1.008   -0.340579    0.682087   -4.169769
   7 H     1.0000    0     1.008   -0.340579    4.758236   -1.733026
   8 H     1.0000    0     1.008   -0.340579    4.575573    2.970837
   9 H     1.0000    0     1.008   -0.340579   -3.211398    2.970837
  10 H     1.0000    0     1.008   -0.340579   -3.394061   -1.733026



           ************************************************************
           *        Program running with 16 parallel MPI-processes    *
           *              working on a common directory               *
           ************************************************************
------------------------------------------------------------------------------
                   ___                                                        
                  /   \      - P O W E R E D   B Y -                         
                 /     \                                                     
                 |  |  |   _    _      __       _____    __    __             
                 |  |  |  | |  | |    /  \     |  _  \  |  |  /  |          
                  \  \/   | |  | |   /    \    | | | |  |  | /  /          
                 / \  \   | |__| |  /  /\  \   | |_| |  |  |/  /          
                |  |  |   |  __  | /  /__\  \  |    /   |      \           
                |  |  |   | |  | | |   __   |  |    \   |  |\   \          
                \     /   | |  | | |  |  |  |  | |\  \  |  | \   \       
                 \___/    |_|  |_| |__|  |__|  |_| \__\ |__|  \__/        
                                                                              
                      - O R C A' S   B I G   F R I E N D -                    
                                      &                                       
                       - I N T E G R A L  F E E D E R -                       
                                                                              
 v1 FN, 2020, v2 2021                                                         
------------------------------------------------------------------------------


Reading SHARK input file piridine_efield_x_-0.004.SHARKINP.tmp ... ok
----------------------
SHARK INTEGRAL PACKAGE
----------------------

Number of atoms                             ...     11
Number of basis functions                   ...    219
Number of shells                            ...    115
Maximum angular momentum                    ...      2
Integral batch strategy                     ... SHARK/LIBINT Hybrid
RI-J (if used) integral strategy            ... SPLIT-RIJ (Revised 2003 algorithm where possible)
Printlevel                                  ...      1
Contraction scheme used                     ... PARTIAL GENERAL contraction
Coulomb Range Separation                    ... NOT USED
Exchange Range Separation                   ... NOT USED
Finite Nucleus Model                        ... NOT USED
Auxiliary Coulomb fitting basis             ... NOT available
Auxiliary J/K fitting basis                 ... NOT available
Auxiliary Correlation fitting basis         ... NOT available
Auxiliary 'external' fitting basis          ... NOT available
Integral threshold                          ...     1.000000e-12
Primitive cut-off                           ...     1.000000e-14
Primitive pair pre-selection threshold      ...     1.000000e-14

Calculating pre-screening integrals         ... done (  0.0 sec) Dimension = 115
Calculating pre-screening integrals (ORCA)  ... done (  0.1 sec) Dimension = 79
Organizing shell pair data                  ... done (  0.0 sec)
Shell pair information
Total number of shell pairs                 ...      6670
Shell pairs after pre-screening             ...      6002
Total number of primitive shell pairs       ...      9486
Primitive shell pairs kept                  ...      8107
          la=0 lb=0:   2207 shell pairs
          la=1 lb=0:   2075 shell pairs
          la=1 lb=1:    406 shell pairs
          la=2 lb=0:    900 shell pairs
          la=2 lb=1:    336 shell pairs
          la=2 lb=2:     78 shell pairs

Calculating one electron integrals          ... done (  0.0 sec)
Calculating Nuclear repulsion               ... done (  0.0 sec) ENN=    214.850568283403 Eh

SHARK setup successfully completed in   0.2 seconds

Maximum memory used throughout the entire GTOINT-calculation: 15.5 MB

An Electric Field will be added: -4.000e-03 0.000e+00 0.000e+00 au

  ... done adding electric field perturbation



           ************************************************************
           *        Program running with 16 parallel MPI-processes    *
           *              working on a common directory               *
           ************************************************************

Diagonalization of the overlap matrix:
Smallest eigenvalue                        ... 1.248e-05
Time for diagonalization                   ...    0.004 sec
Threshold for overlap eigenvalues          ... 1.000e-08
Number of eigenvalues below threshold      ... 0
Time for construction of square roots      ...    0.014 sec
Total time needed                          ...    0.022 sec

Time for model grid setup =    0.049 sec

Loading Hartree-Fock densities                     ... done
Calculating cut-offs                               ... done
Initializing the effective Hamiltonian             ... done
Setting up the integral package (SHARK)            ... done
Starting the Coulomb interaction                   ... done (   0.1 sec)
Reading the grid                                   ... done
Mapping shells                                     ... done
Starting the XC term evaluation                    ... done (   0.0 sec)
Transforming the Hamiltonian                       ... done (   0.0 sec)
Diagonalizing the Hamiltonian                      ... done (   0.0 sec)
Back transforming the eigenvectors                 ... done (   0.0 sec)
Now organizing SCF variables                       ... done
--------------
SCF ITERATIONS
--------------
ITER       Energy         Delta-E        Max-DP      RMS-DP      [F,P]     Damp
               ***  Starting incremental Fock matrix formation  ***
  0   -246.3411847842   0.000000000000 0.61301322  0.01387500  0.2815611 0.7000
  1   -246.4380525292  -0.096867744948 0.46444714  0.01032475  0.1778584 0.7000
                               ***Turning on DIIS***
  2   -246.4953657505  -0.057313221297 0.32963455  0.00717351  0.1034025 0.7000
  3   -247.1791101796  -0.683744429122 0.77626804  0.01640076  0.0606799 0.0000
  4   -246.5199699938   0.659140185782 0.02333223  0.00057525  0.0083907 0.0000
                      *** Initiating the SOSCF procedure ***
                           *** Shutting down DIIS ***
                      *** Re-Reading the Fockian *** 
                      *** Removing any level shift *** 
ITER      Energy       Delta-E        Grad      Rot      Max-DP    RMS-DP
  5   -246.60791385  -0.0879438557  0.001470  0.001470  0.017262  0.000377
               *** Restarting incremental Fock matrix formation ***
  6   -246.61247635  -0.0045625049  0.000550  0.001130  0.010948  0.000241
  7   -246.61249555  -0.0000191997  0.000297  0.001213  0.007968  0.000176
  8   -246.61250160  -0.0000060455  0.000093  0.000237  0.000890  0.000026
  9   -246.61250229  -0.0000006899  0.000091  0.000317  0.001172  0.000028
 10   -246.61250251  -0.0000002185  0.000018  0.000067  0.000291  0.000007
 11   -246.61250253  -0.0000000183  0.000008  0.000013  0.000064  0.000002
 12   -246.61250253  -0.0000000025  0.000002  0.000002  0.000021  0.000001
 13   -246.61250253  -0.0000000002  0.000001  0.000001  0.000006  0.000000
                  ***Gradient check signals convergence***
              ***Rediagonalizing the Fockian in SOSCF/NRSCF***

               *****************************************************
               *                     SUCCESS                       *
               *           SCF CONVERGED AFTER  14 CYCLES          *
               *****************************************************

Total Energy       :         -246.61250253 Eh           -6710.66736 eV
  Last Energy change         ...   -2.1259e-11  Tolerance :   1.0000e-09
  Last MAX-Density change    ...    3.4223e-06  Tolerance :   1.0000e-08
             **** THE GBW FILE WAS UPDATED (piridine_efield_x_-0.004.gbw) ****
             **** DENSITY piridine_efield_x_-0.004.scfp WAS UPDATED ****
             **** ENERGY FILE WAS UPDATED (piridine_efield_x_-0.004.en.tmp) ****
             **** THE GBW FILE WAS UPDATED (piridine_efield_x_-0.004.gbw) ****
             **** DENSITY piridine_efield_x_-0.004.scfp WAS UPDATED ****
----------------
ORBITAL ENERGIES
----------------

  NO   OCC          E(Eh)            E(eV) 
   0   2.0000     -15.528429      -422.5500 
   1   2.0000     -11.269446      -306.6572 
   2   2.0000     -11.269406      -306.6561 
   3   2.0000     -11.248693      -306.0925 
   4   2.0000     -11.241258      -305.8902 
   5   2.0000     -11.241154      -305.8874 
   6   2.0000      -1.341581       -36.5063 
   7   2.0000      -1.081935       -29.4409 
   8   2.0000      -1.075133       -29.2559 
   9   2.0000      -0.883946       -24.0534 
  10   2.0000      -0.842159       -22.9163 
  11   2.0000      -0.743948       -20.2439 
  12   2.0000      -0.700558       -19.0632 
  13   2.0000      -0.645037       -17.5524 
  14   2.0000      -0.601049       -16.3554 
  15   2.0000      -0.592571       -16.1247 
  16   2.0000      -0.573094       -15.5947 
  17   2.0000      -0.532912       -14.5013 
  18   2.0000      -0.384540       -10.4639 
  19   2.0000      -0.347878        -9.4663 
  20   2.0000      -0.329970        -8.9789 
  21   0.0000       0.032503         0.8845 
  22   0.0000       0.040812         1.1105 
  23   0.0000       0.043071         1.1720 
  24   0.0000       0.057531         1.5655 
  25   0.0000       0.063231         1.7206 
  26   0.0000       0.084618         2.3026 
  27   0.0000       0.103544         2.8176 
  28   0.0000       0.113129         3.0784 
  29   0.0000       0.116652         3.1742 
  30   0.0000       0.126089         3.4311 
  31   0.0000       0.129302         3.5185 
  32   0.0000       0.132364         3.6018 
  33   0.0000       0.138896         3.7795 
  34   0.0000       0.151432         4.1207 
  35   0.0000       0.151612         4.1256 
  36   0.0000       0.160225         4.3600 
  37   0.0000       0.162699         4.4273 
  38   0.0000       0.168222         4.5775 
  39   0.0000       0.178963         4.8698 
  40   0.0000       0.186265         5.0685 
  41   0.0000       0.188085         5.1181 
  42   0.0000       0.193011         5.2521 
  43   0.0000       0.201593         5.4856 
  44   0.0000       0.237841         6.4720 
  45   0.0000       0.276851         7.5335 
  46   0.0000       0.277530         7.5520 
  47   0.0000       0.293509         7.9868 
  48   0.0000       0.304649         8.2899 
  49   0.0000       0.308270         8.3884 
  50   0.0000       0.326448         8.8831 
  51   0.0000       0.332515         9.0482 
  52   0.0000       0.334258         9.0956 
  53   0.0000       0.357836         9.7372 
  54   0.0000       0.367543        10.0013 
  55   0.0000       0.368207        10.0194 
  56   0.0000       0.370916        10.0931 
  57   0.0000       0.380972        10.3668 
  58   0.0000       0.403401        10.9771 
  59   0.0000       0.427285        11.6270 
  60   0.0000       0.428225        11.6526 
  61   0.0000       0.431473        11.7410 
  62   0.0000       0.443699        12.0737 
  63   0.0000       0.451891        12.2966 
  64   0.0000       0.468443        12.7470 
  65   0.0000       0.498441        13.5633 
  66   0.0000       0.531606        14.4657 
  67   0.0000       0.547982        14.9113 
  68   0.0000       0.549959        14.9651 
  69   0.0000       0.562794        15.3144 
  70   0.0000       0.573927        15.6173 
  71   0.0000       0.576378        15.6840 
  72   0.0000       0.596773        16.2390 
  73   0.0000       0.605393        16.4736 
  74   0.0000       0.617978        16.8160 
  75   0.0000       0.620268        16.8783 
  76   0.0000       0.649900        17.6847 
  77   0.0000       0.659471        17.9451 
  78   0.0000       0.673697        18.3322 
  79   0.0000       0.675546        18.3825 
  80   0.0000       0.676194        18.4002 
  81   0.0000       0.689344        18.7580 
  82   0.0000       0.689715        18.7681 
  83   0.0000       0.691677        18.8215 
  84   0.0000       0.710087        19.3224 
  85   0.0000       0.727654        19.8005 
  86   0.0000       0.728508        19.8237 
  87   0.0000       0.729320        19.8458 
  88   0.0000       0.756391        20.5824 
  89   0.0000       0.761816        20.7301 
  90   0.0000       0.809677        22.0324 
  91   0.0000       0.816331        22.2135 
  92   0.0000       0.840704        22.8767 
  93   0.0000       0.848749        23.0956 
  94   0.0000       0.866989        23.5920 
  95   0.0000       0.873870        23.7792 
  96   0.0000       0.882489        24.0137 
  97   0.0000       0.905568        24.6417 
  98   0.0000       0.911660        24.8075 
  99   0.0000       0.919474        25.0202 
 100   0.0000       0.936697        25.4888 
 101   0.0000       0.967015        26.3138 
 102   0.0000       0.984010        26.7763 
 103   0.0000       1.006869        27.3983 
 104   0.0000       1.018212        27.7070 
 105   0.0000       1.044554        28.4237 
 106   0.0000       1.089817        29.6554 
 107   0.0000       1.104172        30.0461 
 108   0.0000       1.111979        30.2585 
 109   0.0000       1.113737        30.3063 
 110   0.0000       1.132372        30.8134 
 111   0.0000       1.152248        31.3543 
 112   0.0000       1.180541        32.1242 
 113   0.0000       1.243153        33.8279 
 114   0.0000       1.345755        36.6199 
 115   0.0000       1.362652        37.0797 
 116   0.0000       1.371333        37.3159 
 117   0.0000       1.401261        38.1303 
 118   0.0000       1.403018        38.1781 
 119   0.0000       1.470272        40.0081 
 120   0.0000       1.509166        41.0665 
 121   0.0000       1.512103        41.1464 
 122   0.0000       1.520907        41.3860 
 123   0.0000       1.523891        41.4672 
 124   0.0000       1.596614        43.4461 
 125   0.0000       1.604388        43.6576 
 126   0.0000       1.609187        43.7882 
 127   0.0000       1.630279        44.3621 
 128   0.0000       1.664653        45.2975 
 129   0.0000       1.690142        45.9911 
 130   0.0000       1.690417        45.9986 
 131   0.0000       1.694530        46.1105 
 132   0.0000       1.714052        46.6417 
 133   0.0000       1.747040        47.5394 
 134   0.0000       1.814784        49.3828 
 135   0.0000       1.818924        49.4954 
 136   0.0000       1.847592        50.2755 
 137   0.0000       1.855275        50.4846 
 138   0.0000       1.893811        51.5332 
 139   0.0000       1.914449        52.0948 
 140   0.0000       1.946583        52.9692 
 141   0.0000       1.963287        53.4237 
 142   0.0000       2.000262        54.4299 
 143   0.0000       2.017293        54.8933 
 144   0.0000       2.064344        56.1737 
 145   0.0000       2.109976        57.4154 
 146   0.0000       2.119688        57.6796 
 147   0.0000       2.147769        58.4438 
 148   0.0000       2.162448        58.8432 
 149   0.0000       2.167698        58.9861 
 150   0.0000       2.225155        60.5495 
 151   0.0000       2.250083        61.2279 
 152   0.0000       2.252399        61.2909 
 153   0.0000       2.281374        62.0793 
 154   0.0000       2.325212        63.2722 
 155   0.0000       2.340802        63.6965 
 156   0.0000       2.345901        63.8352 
 157   0.0000       2.362557        64.2884 
 158   0.0000       2.419481        65.8374 
 159   0.0000       2.439004        66.3687 
 160   0.0000       2.469207        67.1905 
 161   0.0000       2.519764        68.5663 
 162   0.0000       2.559250        69.6407 
 163   0.0000       2.590639        70.4949 
 164   0.0000       2.639771        71.8318 
 165   0.0000       2.752778        74.9069 
 166   0.0000       2.824530        76.8594 
 167   0.0000       2.837838        77.2215 
 168   0.0000       2.846671        77.4619 
 169   0.0000       2.914483        79.3071 
 170   0.0000       2.936643        79.9101 
 171   0.0000       2.953893        80.3795 
 172   0.0000       2.985242        81.2326 
 173   0.0000       3.105400        84.5022 
 174   0.0000       3.140598        85.4600 
 175   0.0000       3.196652        86.9853 
 176   0.0000       3.309954        90.0684 
 177   0.0000       3.456453        94.0549 
 178   0.0000       3.505445        95.3880 
 179   0.0000       3.609948        98.2317 
 180   0.0000       3.946595       107.3923 
 181   0.0000       3.966570       107.9359 
 182   0.0000       4.506582       122.6303 
Total SCF time: 0 days 0 hours 0 min 10 sec 

Maximum memory used throughout the entire SCF-calculation: 229.7 MB

-------------------------   --------------------
FINAL SINGLE POINT ENERGY      -246.612502529136
-------------------------   --------------------


                            ***************************************
                            *     ORCA property calculations      *
                            ***************************************

                                    ---------------------
                                    Active property flags
                                    ---------------------
   (+) Dipole Moment
   (+) Polarizability


------------------------------------------------------------------------------
                       ORCA ELECTRIC PROPERTIES CALCULATION
------------------------------------------------------------------------------

Dipole Moment Calculation                       ... on
Quadrupole Moment Calculation                   ... off
Polarizability Calculation                      ... Analytic (CP-SCF)
GBWName                                         ... piridine_efield_x_-0.004.gbw
Electron density                                ... piridine_efield_x_-0.004.scfp
The origin for moment calculation is the CENTER OF MASS  = (-0.340579,  0.682087  0.420996)

-------------
DIPOLE MOMENT
-------------
                                X             Y             Z
Electronic contribution:     -0.15929      -0.00000       1.47753
Nuclear contribution   :      0.00000      -0.00000      -1.88024
                        -----------------------------------------
Total Dipole Moment    :     -0.15929      -0.00000      -0.40271
                        -----------------------------------------
Magnitude (a.u.)       :      0.43307
Magnitude (Debye)      :      1.10078



--------------------
Rotational spectrum 
--------------------
 
Rotational constants in cm-1:     0.229528     0.201222     0.107222 
Rotational constants in MHz :  6881.073070  6032.486698  3214.449192 

 Dipole components along the rotational axes: 
x,y,z [a.u.] :    -0.000000    -0.402713     0.159291 
x,y,z [Debye]:    -0.000000    -1.023615     0.404885 

 
Transforming and storing MO dipole integrals   ... done

                ... starting polarizability calculation

The origin for moment calculation is the CENTER OF MASS  = (-0.340579,  0.682087  0.420996)
Opening the Dipole integral file               ... (piridine_efield_x_-0.004.dmo.tmp) done
Reading Dipole-MO integrals                    ... done
Solving CP-SCF equations                       ... 

           ************************************************************
           *        Program running with 16 parallel MPI-processes    *
           *              working on a common directory               *
           ************************************************************

------------------------------------------------------------------------------
                           ORCA CP-SCF CALCULATION
------------------------------------------------------------------------------

Input orbitals are from        ... piridine_efield_x_-0.004.gbw
Input Perturbation             ... piridine_efield_x_-0.004.cpv.tmp
Wavefunction output            ... piridine_efield_x_-0.004.cpu.tmp
Perturbation mode              ... Real perturbation (singlet)
Solver                         ... POPLE
Max. number of iterations      ... 64
Convergence tolerance          ... 3.000e-05
Integral handling              ... Direct
Number of perturbations        ... 3
Number of operators            ... 1
Orbital ranges used for CP-SCF:
 Operator 0:  Orbitals   0... 20  to  21...182
Variables per perturbation     ... 3402
Memory available               ... 1993.8 MB
Memory needed per perturbation ...   1.0 MB
Perturbations treated per batch... 3
Number of batches              ... 1
     CP-SCF ITERATION   0:   2.0812e+00 (   1.2 sec   0/  3 done)
     CP-SCF ITERATION   1:   4.1005e-01 (   1.2 sec   0/  3 done)
     CP-SCF ITERATION   2:   1.2137e-01 (   1.2 sec   0/  3 done)
     CP-SCF ITERATION   3:   5.3627e-02 (   1.2 sec   0/  3 done)
     CP-SCF ITERATION   4:   2.1199e-02 (   1.2 sec   0/  3 done)
     CP-SCF ITERATION   5:   9.5573e-03 (   1.2 sec   0/  3 done)
     CP-SCF ITERATION   6:   2.7445e-03 (   1.2 sec   0/  3 done)
     CP-SCF ITERATION   7:   5.9030e-04 (   1.2 sec   0/  3 done)
     CP-SCF ITERATION   8:   1.4841e-04 (   1.2 sec   0/  3 done)
     CP-SCF ITERATION   9:   4.5225e-05 (   1.2 sec   2/  3 done)
     CP-SCF ITERATION  10:   1.2190e-05 (   0.8 sec   3/  3 done)
                    *** THE CP-SCF HAS CONVERGED ***
done
Reading CP-SCF coefficients                    ... done
Doing the polarizability tensor                ... done
Cleaning up                                    ... done

-------------------------
THE POLARIZABILITY TENSOR
-------------------------

The raw cartesian tensor (atomic units):
   39.87488      0.00000     -0.09991  
    0.00000     79.91358     -0.00000  
   -0.09991     -0.00000     65.72225  
diagonalized tensor: 
   39.87449     65.72264     79.91358  

    0.99999     -0.00387      0.00000  
   -0.00000      0.00000      1.00000  
    0.00387      0.99999     -0.00000  

Isotropic polarizability :  61.83690


Timings for individual modules:

Sum of individual times         ...       31.881 sec (=   0.531 min)
GTO integral calculation        ...        2.890 sec (=   0.048 min)   9.1 %
SCF iterations                  ...       13.264 sec (=   0.221 min)  41.6 %
Solution of CP-SCF eqns.        ...       15.727 sec (=   0.262 min)  49.3 %
                             ****ORCA TERMINATED NORMALLY****
TOTAL RUN TIME: 0 days 0 hours 0 minutes 34 seconds 990 msec
