
                                 *****************
                                 * O   R   C   A *
                                 *****************

                                            #,                                       
                                            ###                                      
                                            ####                                     
                                            #####                                    
                                            ######                                   
                                           ########,                                 
                                     ,,################,,,,,                         
                               ,,#################################,,                 
                          ,,##########################################,,             
                       ,#########################################, ''#####,          
                    ,#############################################,,   '####,        
                  ,##################################################,,,,####,       
                ,###########''''           ''''###############################       
              ,#####''   ,,,,##########,,,,          '''####'''          '####       
            ,##' ,,,,###########################,,,                        '##       
           ' ,,###''''                  '''############,,,                           
         ,,##''                                '''############,,,,        ,,,,,,###''
      ,#''                                            '''#######################'''  
     '                                                          ''''####''''         
             ,#######,   #######,   ,#######,      ##                                
            ,#'     '#,  ##    ##  ,#'     '#,    #''#        ######   ,####,        
            ##       ##  ##   ,#'  ##            #'  '#       #        #'  '#        
            ##       ##  #######   ##           ,######,      #####,   #    #        
            '#,     ,#'  ##    ##  '#,     ,#' ,#      #,         ##   #,  ,#        
             '#######'   ##     ##  '#######'  #'      '#     #####' # '####'        



                  #######################################################
                  #                        -***-                        #
                  #          Department of theory and spectroscopy      #
                  #    Directorship and core code : Frank Neese         #
                  #        Max Planck Institute fuer Kohlenforschung    #
                  #                Kaiser Wilhelm Platz 1               #
                  #                 D-45470 Muelheim/Ruhr               #
                  #                      Germany                        #
                  #                                                     #
                  #                  All rights reserved                #
                  #                        -***-                        #
                  #######################################################


                         Program Version 5.0.4 -  RELEASE  -


 With contributions from (in alphabetic order):
   Daniel Aravena         : Magnetic Suceptibility
   Michael Atanasov       : Ab Initio Ligand Field Theory (pilot matlab implementation)
   Alexander A. Auer      : GIAO ZORA, VPT2 properties, NMR spectrum
   Ute Becker             : Parallelization
   Giovanni Bistoni       : ED, misc. LED, open-shell LED, HFLD
   Martin Brehm           : Molecular dynamics
   Dmytro Bykov           : SCF Hessian
   Vijay G. Chilkuri      : MRCI spin determinant printing, contributions to CSF-ICE
   Dipayan Datta          : RHF DLPNO-CCSD density
   Achintya Kumar Dutta   : EOM-CC, STEOM-CC
   Dmitry Ganyushin       : Spin-Orbit,Spin-Spin,Magnetic field MRCI
   Miquel Garcia          : C-PCM and meta-GGA Hessian, CC/C-PCM, Gaussian charge scheme
   Yang Guo               : DLPNO-NEVPT2, F12-NEVPT2, CIM, IAO-localization
   Andreas Hansen         : Spin unrestricted coupled pair/coupled cluster methods
   Benjamin Helmich-Paris : MC-RPA, TRAH-SCF, COSX integrals
   Lee Huntington         : MR-EOM, pCC
   Robert Izsak           : Overlap fitted RIJCOSX, COSX-SCS-MP3, EOM
   Marcus Kettner         : VPT2
   Christian Kollmar      : KDIIS, OOCD, Brueckner-CCSD(T), CCSD density, CASPT2, CASPT2-K
   Simone Kossmann        : Meta GGA functionals, TD-DFT gradient, OOMP2, MP2 Hessian
   Martin Krupicka        : Initial AUTO-CI
   Lucas Lang             : DCDCAS
   Marvin Lechner         : AUTO-CI (C++ implementation), FIC-MRCC
   Dagmar Lenk            : GEPOL surface, SMD
   Dimitrios Liakos       : Extrapolation schemes; Compound Job, initial MDCI parallelization
   Dimitrios Manganas     : Further ROCIS development; embedding schemes
   Dimitrios Pantazis     : SARC Basis sets
   Anastasios Papadopoulos: AUTO-CI, single reference methods and gradients
   Taras Petrenko         : DFT Hessian,TD-DFT gradient, ASA, ECA, R-Raman, ABS, FL, XAS/XES, NRVS
   Peter Pinski           : DLPNO-MP2, DLPNO-MP2 Gradient
   Christoph Reimann      : Effective Core Potentials
   Marius Retegan         : Local ZFS, SOC
   Christoph Riplinger    : Optimizer, TS searches, QM/MM, DLPNO-CCSD(T), (RO)-DLPNO pert. Triples
   Tobias Risthaus        : Range-separated hybrids, TD-DFT gradient, RPA, STAB
   Michael Roemelt        : Original ROCIS implementation
   Masaaki Saitow         : Open-shell DLPNO-CCSD energy and density
   Barbara Sandhoefer     : DKH picture change effects
   Avijit Sen             : IP-ROCIS
   Kantharuban Sivalingam : CASSCF convergence, NEVPT2, FIC-MRCI
   Bernardo de Souza      : ESD, SOC TD-DFT
   Georgi Stoychev        : AutoAux, RI-MP2 NMR, DLPNO-MP2 response
   Willem Van den Heuvel  : Paramagnetic NMR
   Boris Wezisla          : Elementary symmetry handling
   Frank Wennmohs         : Technical directorship


 We gratefully acknowledge several colleagues who have allowed us to
 interface, adapt or use parts of their codes:
   Stefan Grimme, W. Hujo, H. Kruse, P. Pracht,  : VdW corrections, initial TS optimization,
                  C. Bannwarth, S. Ehlert          DFT functionals, gCP, sTDA/sTD-DF
   Ed Valeev, F. Pavosevic, A. Kumar             : LibInt (2-el integral package), F12 methods
   Garnet Chan, S. Sharma, J. Yang, R. Olivares  : DMRG
   Ulf Ekstrom                                   : XCFun DFT Library
   Mihaly Kallay                                 : mrcc  (arbitrary order and MRCC methods)
   Jiri Pittner, Ondrej Demel                    : Mk-CCSD
   Frank Weinhold                                : gennbo (NPA and NBO analysis)
   Christopher J. Cramer and Donald G. Truhlar   : smd solvation model
   Lars Goerigk                                  : TD-DFT with DH, B97 family of functionals
   V. Asgeirsson, H. Jonsson                     : NEB implementation
   FAccTs GmbH                                   : IRC, NEB, NEB-TS, DLPNO-Multilevel, CI-OPT
                                                   MM, QMMM, 2- and 3-layer-ONIOM, Crystal-QMMM,
                                                   LR-CPCM, SF, NACMEs, symmetry and pop. for TD-DFT,
                                                   nearIR, NL-DFT gradient (VV10), updates on ESD,
                                                   ML-optimized integration grids
   S Lehtola, MJT Oliveira, MAL Marques          : LibXC Library
   Liviu Ungur et al                             : ANISO software


 Your calculation uses the libint2 library for the computation of 2-el integrals
 For citations please refer to: http://libint.valeyev.net

 Your ORCA version has been built with support for libXC version: 5.1.0
 For citations please refer to: https://tddft.org/programs/libxc/

 This ORCA versions uses:
   CBLAS   interface :  Fast vector & matrix operations
   LAPACKE interface :  Fast linear algebra routines
   SCALAPACK package :  Parallel linear algebra routines
   Shared memory     :  Shared parallel matrices
   BLAS/LAPACK       :  OpenBLAS 0.3.15  USE64BITINT DYNAMIC_ARCH NO_AFFINITY SkylakeX SINGLE_THREADED
        Core in use  :  SkylakeX
   Copyright (c) 2011-2014, The OpenBLAS Project


================================================================================

----- Orbital basis set information -----
Your calculation utilizes the basis: aug-cc-pVDZ 
    H, B-Ne : Obtained from the ccRepo (grant-hill.group.shef.ac.uk/ccrepo) Feb. 2017
              R. A. Kendall, T. H. Dunning, Jr., R. J. Harrison, J. Chem. Phys. 96, 6796 (1992)
         He : Obtained from the ccRepo (grant-hill.group.shef.ac.uk/ccrepo) Feb. 2017
              D. E. Woon, T. H. Dunning, Jr., J. Chem. Phys. 100, 2975 (1994)
  Li-Be, Na : Obtained from the ccRepo (grant-hill.group.shef.ac.uk/ccrepo) Feb. 2017
              B. P. Prascher, D. E. Woon, K. A. Peterson, T. H. Dunning, Jr., A. K. Wilson, Theor. Chem. Acc. 128, 69 (2011)
         Mg : Obtained from the Peterson Research Group Website (tyr0.chem.wsu.edu/~kipeters) Feb. 2017
              B. P. Prascher, D. E. Woon, K. A. Peterson, T. H. Dunning, Jr., A. K. Wilson, Theor. Chem. Acc. 128, 69 (2011)
      Al-Ar : Obtained from the ccRepo (grant-hill.group.shef.ac.uk/ccrepo) Feb. 2017
              D. E. Woon, T. H. Dunning, Jr., J. Chem. Phys. 98, 1358 (1993)
      Sc-Zn : Obtained from the ccRepo (grant-hill.group.shef.ac.uk/ccrepo) Feb. 2017
              N. B. Balabanov, K. A. Peterson, J. Chem. Phys. 123, 064107 (2005)
              N. B. Balabanov, K. A. Peterson, J. Chem. Phys. 125, 074110 (2006)
      Ga-Kr : Obtained from the ccRepo (grant-hill.group.shef.ac.uk/ccrepo) Feb. 2017
              A. K. Wilson, D. E. Woon, K. A. Peterson, T. H. Dunning, Jr., J. Chem. Phys. 110, 7667 (1999)

================================================================================
                                        WARNINGS
                       Please study these warnings very carefully!
================================================================================


INFO   : the flag for use of the SHARK integral package has been found!

================================================================================
                                       INPUT FILE
================================================================================
NAME = piridine_efield_z_-0.008.inp
|  1> ! hf aug-cc-pVDZ
|  2> ! MiniPrint VeryTightSCF
|  3> %pal
|  4>  nprocs 16
|  5> end
|  6> %MaxCore 2000
|  7> %scf
|  8>  maxiter=200
|  9>  efield 0.0 , 0.0 , -0.008
| 10> end
| 11> %elprop
| 12>   polar 1
| 13> end
| 14> * xyz 0 1
| 15> C       -0.180226841      0.360945118     -1.120304970
| 16> C       -0.180226841      1.559292118     -0.407860970
| 17> C       -0.180226841      1.503191118      0.986935030
| 18> N       -0.180226841      0.360945118      1.29018350
| 19> C       -0.180226841     -0.781300882      0.986935030
| 20> C       -0.180226841     -0.837401882     -0.407860970
| 21> H       -0.180226841      0.360945118     -2.206546970
| 22> H       -0.180226841      2.517950118     -0.917077970
| 23> H       -0.180226841      2.421289118      1.572099030
| 24> H       -0.180226841     -1.699398882      1.572099030
| 25> H       -0.180226841     -1.796059882     -0.917077970
| 26> *
| 27> 
| 28>                          ****END OF INPUT****
================================================================================

                       ****************************
                       * Single Point Calculation *
                       ****************************

---------------------------------
CARTESIAN COORDINATES (ANGSTROEM)
---------------------------------
  C     -0.180227    0.360945   -1.120305
  C     -0.180227    1.559292   -0.407861
  C     -0.180227    1.503191    0.986935
  N     -0.180227    0.360945    1.290183
  C     -0.180227   -0.781301    0.986935
  C     -0.180227   -0.837402   -0.407861
  H     -0.180227    0.360945   -2.206547
  H     -0.180227    2.517950   -0.917078
  H     -0.180227    2.421289    1.572099
  H     -0.180227   -1.699399    1.572099
  H     -0.180227   -1.796060   -0.917078

----------------------------
CARTESIAN COORDINATES (A.U.)
----------------------------
  NO LB      ZA    FRAG     MASS         X           Y           Z
   0 C     6.0000    0    12.011   -0.340579    0.682087   -2.117070
   1 C     6.0000    0    12.011   -0.340579    2.946635   -0.770746
   2 C     6.0000    0    12.011   -0.340579    2.840620    1.865037
   3 N     7.0000    0    14.007   -0.340579    0.682087    2.438093
   4 C     6.0000    0    12.011   -0.340579   -1.476445    1.865037
   5 C     6.0000    0    12.011   -0.340579   -1.582460   -0.770746
   6 H     1.0000    0     1.008   -0.340579    0.682087   -4.169769
   7 H     1.0000    0     1.008   -0.340579    4.758236   -1.733026
   8 H     1.0000    0     1.008   -0.340579    4.575573    2.970837
   9 H     1.0000    0     1.008   -0.340579   -3.211398    2.970837
  10 H     1.0000    0     1.008   -0.340579   -3.394061   -1.733026



           ************************************************************
           *        Program running with 16 parallel MPI-processes    *
           *              working on a common directory               *
           ************************************************************
------------------------------------------------------------------------------
                   ___                                                        
                  /   \      - P O W E R E D   B Y -                         
                 /     \                                                     
                 |  |  |   _    _      __       _____    __    __             
                 |  |  |  | |  | |    /  \     |  _  \  |  |  /  |          
                  \  \/   | |  | |   /    \    | | | |  |  | /  /          
                 / \  \   | |__| |  /  /\  \   | |_| |  |  |/  /          
                |  |  |   |  __  | /  /__\  \  |    /   |      \           
                |  |  |   | |  | | |   __   |  |    \   |  |\   \          
                \     /   | |  | | |  |  |  |  | |\  \  |  | \   \       
                 \___/    |_|  |_| |__|  |__|  |_| \__\ |__|  \__/        
                                                                              
                      - O R C A' S   B I G   F R I E N D -                    
                                      &                                       
                       - I N T E G R A L  F E E D E R -                       
                                                                              
 v1 FN, 2020, v2 2021                                                         
------------------------------------------------------------------------------


Reading SHARK input file piridine_efield_z_-0.008.SHARKINP.tmp ... ok
----------------------
SHARK INTEGRAL PACKAGE
----------------------

Number of atoms                             ...     11
Number of basis functions                   ...    219
Number of shells                            ...    115
Maximum angular momentum                    ...      2
Integral batch strategy                     ... SHARK/LIBINT Hybrid
RI-J (if used) integral strategy            ... SPLIT-RIJ (Revised 2003 algorithm where possible)
Printlevel                                  ...      1
Contraction scheme used                     ... PARTIAL GENERAL contraction
Coulomb Range Separation                    ... NOT USED
Exchange Range Separation                   ... NOT USED
Finite Nucleus Model                        ... NOT USED
Auxiliary Coulomb fitting basis             ... NOT available
Auxiliary J/K fitting basis                 ... NOT available
Auxiliary Correlation fitting basis         ... NOT available
Auxiliary 'external' fitting basis          ... NOT available
Integral threshold                          ...     1.000000e-12
Primitive cut-off                           ...     1.000000e-14
Primitive pair pre-selection threshold      ...     1.000000e-14

Calculating pre-screening integrals         ... done (  0.0 sec) Dimension = 115
Calculating pre-screening integrals (ORCA)  ... done (  0.1 sec) Dimension = 79
Organizing shell pair data                  ... done (  0.0 sec)
Shell pair information
Total number of shell pairs                 ...      6670
Shell pairs after pre-screening             ...      6002
Total number of primitive shell pairs       ...      9486
Primitive shell pairs kept                  ...      8107
          la=0 lb=0:   2207 shell pairs
          la=1 lb=0:   2075 shell pairs
          la=1 lb=1:    406 shell pairs
          la=2 lb=0:    900 shell pairs
          la=2 lb=1:    336 shell pairs
          la=2 lb=2:     78 shell pairs

Calculating one electron integrals          ... done (  0.0 sec)
Calculating Nuclear repulsion               ... done (  0.0 sec) ENN=    214.850568283403 Eh

SHARK setup successfully completed in   0.3 seconds

Maximum memory used throughout the entire GTOINT-calculation: 15.5 MB

An Electric Field will be added: 0.000e+00 0.000e+00 -8.000e-03 au

  ... done adding electric field perturbation



           ************************************************************
           *        Program running with 16 parallel MPI-processes    *
           *              working on a common directory               *
           ************************************************************

Diagonalization of the overlap matrix:
Smallest eigenvalue                        ... 1.248e-05
Time for diagonalization                   ...    0.004 sec
Threshold for overlap eigenvalues          ... 1.000e-08
Number of eigenvalues below threshold      ... 0
Time for construction of square roots      ...    0.010 sec
Total time needed                          ...    0.015 sec

Time for model grid setup =    0.048 sec

Loading Hartree-Fock densities                     ... done
Calculating cut-offs                               ... done
Initializing the effective Hamiltonian             ... done
Setting up the integral package (SHARK)            ... done
Starting the Coulomb interaction                   ... done (   0.0 sec)
Reading the grid                                   ... done
Mapping shells                                     ... done
Starting the XC term evaluation                    ... done (   0.0 sec)
Transforming the Hamiltonian                       ... done (   0.0 sec)
Diagonalizing the Hamiltonian                      ... done (   0.0 sec)
Back transforming the eigenvectors                 ... done (   0.0 sec)
Now organizing SCF variables                       ... done
--------------
SCF ITERATIONS
--------------
ITER       Energy         Delta-E        Max-DP      RMS-DP      [F,P]     Damp
               ***  Starting incremental Fock matrix formation  ***
  0   -246.3313811475   0.000000000000 0.62026887  0.01405283  0.2942222 0.7000
  1   -246.4346335705  -0.103252423030 0.46754775  0.01042061  0.1834850 0.7000
                               ***Turning on DIIS***
  2   -246.4949515481  -0.060317977590 0.32993072  0.00721866  0.1045110 0.7000
  3   -247.1723790695  -0.677427521360 0.77021025  0.01645231  0.0599344 0.0000
  4   -246.5182954535   0.654083615997 0.02462759  0.00072284  0.0090615 0.0000
                      *** Initiating the SOSCF procedure ***
                           *** Shutting down DIIS ***
                      *** Re-Reading the Fockian *** 
                      *** Removing any level shift *** 
ITER      Energy       Delta-E        Grad      Rot      Max-DP    RMS-DP
  5   -246.61197592  -0.0936804644  0.001478  0.001478  0.018981  0.000474
               *** Restarting incremental Fock matrix formation ***
  6   -246.61748230  -0.0055063800  0.000641  0.001263  0.014272  0.000327
  7   -246.61750286  -0.0000205594  0.000315  0.001204  0.009838  0.000225
  8   -246.61750860  -0.0000057461  0.000107  0.000296  0.000725  0.000024
  9   -246.61750921  -0.0000006039  0.000089  0.000297  0.001115  0.000028
 10   -246.61750941  -0.0000002010  0.000020  0.000091  0.000279  0.000008
 11   -246.61750943  -0.0000000205  0.000008  0.000021  0.000073  0.000002
 12   -246.61750943  -0.0000000021  0.000002  0.000003  0.000026  0.000001
 13   -246.61750943  -0.0000000003  0.000001  0.000001  0.000006  0.000000
                  ***Gradient check signals convergence***
              ***Rediagonalizing the Fockian in SOSCF/NRSCF***

               *****************************************************
               *                     SUCCESS                       *
               *           SCF CONVERGED AFTER  14 CYCLES          *
               *****************************************************

Total Energy       :         -246.61750943 Eh           -6710.80360 eV
  Last Energy change         ...   -3.1264e-12  Tolerance :   1.0000e-09
  Last MAX-Density change    ...    4.0688e-06  Tolerance :   1.0000e-08
             **** THE GBW FILE WAS UPDATED (piridine_efield_z_-0.008.gbw) ****
             **** DENSITY piridine_efield_z_-0.008.scfp WAS UPDATED ****
             **** ENERGY FILE WAS UPDATED (piridine_efield_z_-0.008.en.tmp) ****
             **** THE GBW FILE WAS UPDATED (piridine_efield_z_-0.008.gbw) ****
             **** DENSITY piridine_efield_z_-0.008.scfp WAS UPDATED ****
----------------
ORBITAL ENERGIES
----------------

  NO   OCC          E(Eh)            E(eV) 
   0   2.0000     -15.534886      -422.7257 
   1   2.0000     -11.270775      -306.6934 
   2   2.0000     -11.270735      -306.6923 
   3   2.0000     -11.240425      -305.8675 
   4   2.0000     -11.238042      -305.8027 
   5   2.0000     -11.237735      -305.7943 
   6   2.0000      -1.344922       -36.5972 
   7   2.0000      -1.083835       -29.4926 
   8   2.0000      -1.070466       -29.1289 
   9   2.0000      -0.881873       -23.9970 
  10   2.0000      -0.840174       -22.8623 
  11   2.0000      -0.744824       -20.2677 
  12   2.0000      -0.702528       -19.1168 
  13   2.0000      -0.641881       -17.4665 
  14   2.0000      -0.601651       -16.3717 
  15   2.0000      -0.596472       -16.2308 
  16   2.0000      -0.564689       -15.3660 
  17   2.0000      -0.528127       -14.3711 
  18   2.0000      -0.378585       -10.3018 
  19   2.0000      -0.348630        -9.4867 
  20   2.0000      -0.334602        -9.1050 
  21   0.0000       0.001733         0.0472 
  22   0.0000       0.009861         0.2683 
  23   0.0000       0.063152         1.7185 
  24   0.0000       0.066711         1.8153 
  25   0.0000       0.073441         1.9984 
  26   0.0000       0.084642         2.3032 
  27   0.0000       0.103111         2.8058 
  28   0.0000       0.109766         2.9869 
  29   0.0000       0.118468         3.2237 
  30   0.0000       0.118832         3.2336 
  31   0.0000       0.129068         3.5121 
  32   0.0000       0.131447         3.5769 
  33   0.0000       0.133793         3.6407 
  34   0.0000       0.146685         3.9915 
  35   0.0000       0.149575         4.0701 
  36   0.0000       0.159408         4.3377 
  37   0.0000       0.175747         4.7823 
  38   0.0000       0.182918         4.9774 
  39   0.0000       0.196415         5.3447 
  40   0.0000       0.198063         5.3896 
  41   0.0000       0.200959         5.4684 
  42   0.0000       0.215036         5.8514 
  43   0.0000       0.220883         6.0105 
  44   0.0000       0.236246         6.4286 
  45   0.0000       0.262014         7.1298 
  46   0.0000       0.276790         7.5318 
  47   0.0000       0.278788         7.5862 
  48   0.0000       0.308917         8.4061 
  49   0.0000       0.315619         8.5884 
  50   0.0000       0.318620         8.6701 
  51   0.0000       0.322475         8.7750 
  52   0.0000       0.333337         9.0705 
  53   0.0000       0.360232         9.8024 
  54   0.0000       0.364660         9.9229 
  55   0.0000       0.377415        10.2700 
  56   0.0000       0.381244        10.3742 
  57   0.0000       0.393734        10.7140 
  58   0.0000       0.397366        10.8129 
  59   0.0000       0.423410        11.5216 
  60   0.0000       0.435806        11.8589 
  61   0.0000       0.445807        12.1310 
  62   0.0000       0.448130        12.1942 
  63   0.0000       0.453967        12.3531 
  64   0.0000       0.473267        12.8782 
  65   0.0000       0.500019        13.6062 
  66   0.0000       0.540051        14.6955 
  67   0.0000       0.543719        14.7953 
  68   0.0000       0.554969        15.1015 
  69   0.0000       0.563561        15.3353 
  70   0.0000       0.572417        15.5763 
  71   0.0000       0.584242        15.8980 
  72   0.0000       0.598264        16.2796 
  73   0.0000       0.602441        16.3933 
  74   0.0000       0.618300        16.8248 
  75   0.0000       0.622871        16.9492 
  76   0.0000       0.654945        17.8220 
  77   0.0000       0.661418        17.9981 
  78   0.0000       0.670716        18.2511 
  79   0.0000       0.671539        18.2735 
  80   0.0000       0.674081        18.3427 
  81   0.0000       0.684468        18.6253 
  82   0.0000       0.687637        18.7116 
  83   0.0000       0.692178        18.8351 
  84   0.0000       0.716403        19.4943 
  85   0.0000       0.732014        19.9191 
  86   0.0000       0.734665        19.9912 
  87   0.0000       0.739307        20.1176 
  88   0.0000       0.765753        20.8372 
  89   0.0000       0.770076        20.9548 
  90   0.0000       0.804919        21.9030 
  91   0.0000       0.817755        22.2523 
  92   0.0000       0.835945        22.7472 
  93   0.0000       0.847833        23.0707 
  94   0.0000       0.872417        23.7397 
  95   0.0000       0.875300        23.8181 
  96   0.0000       0.881074        23.9753 
  97   0.0000       0.918597        24.9963 
  98   0.0000       0.920343        25.0438 
  99   0.0000       0.921419        25.0731 
 100   0.0000       0.939591        25.5676 
 101   0.0000       0.975375        26.5413 
 102   0.0000       0.985228        26.8094 
 103   0.0000       1.007345        27.4113 
 104   0.0000       1.017104        27.6768 
 105   0.0000       1.044151        28.4128 
 106   0.0000       1.088296        29.6140 
 107   0.0000       1.098736        29.8981 
 108   0.0000       1.103277        30.0217 
 109   0.0000       1.111748        30.2522 
 110   0.0000       1.136065        30.9139 
 111   0.0000       1.150298        31.3012 
 112   0.0000       1.184967        32.2446 
 113   0.0000       1.247611        33.9492 
 114   0.0000       1.341690        36.5092 
 115   0.0000       1.362602        37.0783 
 116   0.0000       1.376118        37.4461 
 117   0.0000       1.399727        38.0885 
 118   0.0000       1.402820        38.1727 
 119   0.0000       1.471608        40.0445 
 120   0.0000       1.506703        40.9995 
 121   0.0000       1.512974        41.1701 
 122   0.0000       1.523236        41.4494 
 123   0.0000       1.527327        41.5607 
 124   0.0000       1.606036        43.7025 
 125   0.0000       1.606626        43.7185 
 126   0.0000       1.615305        43.9547 
 127   0.0000       1.632765        44.4298 
 128   0.0000       1.663092        45.2550 
 129   0.0000       1.688646        45.9504 
 130   0.0000       1.691427        46.0261 
 131   0.0000       1.694532        46.1106 
 132   0.0000       1.720133        46.8072 
 133   0.0000       1.747045        47.5395 
 134   0.0000       1.813284        49.3420 
 135   0.0000       1.823958        49.6324 
 136   0.0000       1.853058        50.4243 
 137   0.0000       1.853812        50.4448 
 138   0.0000       1.896553        51.6078 
 139   0.0000       1.923952        52.3534 
 140   0.0000       1.941993        52.8443 
 141   0.0000       1.968158        53.5563 
 142   0.0000       2.003394        54.5151 
 143   0.0000       2.018808        54.9346 
 144   0.0000       2.065465        56.2042 
 145   0.0000       2.117621        57.6234 
 146   0.0000       2.121931        57.7407 
 147   0.0000       2.152456        58.5713 
 148   0.0000       2.162448        58.8432 
 149   0.0000       2.171108        59.0788 
 150   0.0000       2.230765        60.7022 
 151   0.0000       2.250970        61.2520 
 152   0.0000       2.253329        61.3162 
 153   0.0000       2.285255        62.1849 
 154   0.0000       2.323795        63.2337 
 155   0.0000       2.342323        63.7378 
 156   0.0000       2.347139        63.8689 
 157   0.0000       2.356876        64.1339 
 158   0.0000       2.420989        65.8785 
 159   0.0000       2.437133        66.3177 
 160   0.0000       2.471973        67.2658 
 161   0.0000       2.513552        68.3972 
 162   0.0000       2.562079        69.7177 
 163   0.0000       2.591513        70.5186 
 164   0.0000       2.639732        71.8308 
 165   0.0000       2.751313        74.8670 
 166   0.0000       2.824104        76.8478 
 167   0.0000       2.838429        77.2376 
 168   0.0000       2.841565        77.3229 
 169   0.0000       2.922794        79.5333 
 170   0.0000       2.933047        79.8123 
 171   0.0000       2.960773        80.5667 
 172   0.0000       2.987367        81.2904 
 173   0.0000       3.113953        84.7350 
 174   0.0000       3.135980        85.3344 
 175   0.0000       3.196333        86.9766 
 176   0.0000       3.313295        90.1594 
 177   0.0000       3.453830        93.9835 
 178   0.0000       3.501386        95.2776 
 179   0.0000       3.607400        98.1623 
 180   0.0000       3.943589       107.3105 
 181   0.0000       3.969668       108.0202 
 182   0.0000       4.504746       122.5804 
Total SCF time: 0 days 0 hours 0 min 10 sec 

Maximum memory used throughout the entire SCF-calculation: 229.7 MB

-------------------------   --------------------
FINAL SINGLE POINT ENERGY      -246.617509431239
-------------------------   --------------------


                            ***************************************
                            *     ORCA property calculations      *
                            ***************************************

                                    ---------------------
                                    Active property flags
                                    ---------------------
   (+) Dipole Moment
   (+) Polarizability


------------------------------------------------------------------------------
                       ORCA ELECTRIC PROPERTIES CALCULATION
------------------------------------------------------------------------------

Dipole Moment Calculation                       ... on
Quadrupole Moment Calculation                   ... off
Polarizability Calculation                      ... Analytic (CP-SCF)
GBWName                                         ... piridine_efield_z_-0.008.gbw
Electron density                                ... piridine_efield_z_-0.008.scfp
The origin for moment calculation is the CENTER OF MASS  = (-0.340579,  0.682087  0.420996)

-------------
DIPOLE MOMENT
-------------
                                X             Y             Z
Electronic contribution:     -0.00000       0.00000       0.95169
Nuclear contribution   :      0.00000      -0.00000      -1.88024
                        -----------------------------------------
Total Dipole Moment    :     -0.00000       0.00000      -0.92855
                        -----------------------------------------
Magnitude (a.u.)       :      0.92855
Magnitude (Debye)      :      2.36019



--------------------
Rotational spectrum 
--------------------
 
Rotational constants in cm-1:     0.229528     0.201222     0.107222 
Rotational constants in MHz :  6881.073070  6032.486698  3214.449192 

 Dipole components along the rotational axes: 
x,y,z [a.u.] :     0.000000    -0.928553     0.000000 
x,y,z [Debye]:     0.000000    -2.360194     0.000000 

 
Transforming and storing MO dipole integrals   ... done

                ... starting polarizability calculation

The origin for moment calculation is the CENTER OF MASS  = (-0.340579,  0.682087  0.420996)
Opening the Dipole integral file               ... (piridine_efield_z_-0.008.dmo.tmp) done
Reading Dipole-MO integrals                    ... done
Solving CP-SCF equations                       ... 

           ************************************************************
           *        Program running with 16 parallel MPI-processes    *
           *              working on a common directory               *
           ************************************************************

------------------------------------------------------------------------------
                           ORCA CP-SCF CALCULATION
------------------------------------------------------------------------------

Input orbitals are from        ... piridine_efield_z_-0.008.gbw
Input Perturbation             ... piridine_efield_z_-0.008.cpv.tmp
Wavefunction output            ... piridine_efield_z_-0.008.cpu.tmp
Perturbation mode              ... Real perturbation (singlet)
Solver                         ... POPLE
Max. number of iterations      ... 64
Convergence tolerance          ... 3.000e-05
Integral handling              ... Direct
Number of perturbations        ... 3
Number of operators            ... 1
Orbital ranges used for CP-SCF:
 Operator 0:  Orbitals   0... 20  to  21...182
Variables per perturbation     ... 3402
Memory available               ... 1993.8 MB
Memory needed per perturbation ...   1.0 MB
Perturbations treated per batch... 3
Number of batches              ... 1
     CP-SCF ITERATION   0:   2.0939e+00 (   1.2 sec   0/  3 done)
     CP-SCF ITERATION   1:   4.1579e-01 (   1.2 sec   0/  3 done)
     CP-SCF ITERATION   2:   1.2255e-01 (   1.3 sec   0/  3 done)
     CP-SCF ITERATION   3:   5.2640e-02 (   1.3 sec   0/  3 done)
     CP-SCF ITERATION   4:   1.9682e-02 (   1.3 sec   0/  3 done)
     CP-SCF ITERATION   5:   9.3332e-03 (   1.2 sec   0/  3 done)
     CP-SCF ITERATION   6:   2.8190e-03 (   1.3 sec   0/  3 done)
     CP-SCF ITERATION   7:   6.5818e-04 (   1.3 sec   1/  3 done)
     CP-SCF ITERATION   8:   1.4475e-04 (   1.0 sec   1/  3 done)
     CP-SCF ITERATION   9:   3.7028e-05 (   1.0 sec   2/  3 done)
     CP-SCF ITERATION  10:   1.1789e-05 (   0.9 sec   3/  3 done)
                    *** THE CP-SCF HAS CONVERGED ***
done
Reading CP-SCF coefficients                    ... done
Doing the polarizability tensor                ... done
Cleaning up                                    ... done

-------------------------
THE POLARIZABILITY TENSOR
-------------------------

The raw cartesian tensor (atomic units):
   39.69540      0.00000      0.00000  
    0.00000     80.32656     -0.00000  
    0.00000     -0.00000     65.78864  
diagonalized tensor: 
   39.69540     65.78864     80.32656  

    1.00000     -0.00000      0.00000  
   -0.00000     -0.00000      1.00000  
   -0.00000     -1.00000     -0.00000  

Isotropic polarizability :  61.93687


Timings for individual modules:

Sum of individual times         ...       31.188 sec (=   0.520 min)
GTO integral calculation        ...        2.818 sec (=   0.047 min)   9.0 %
SCF iterations                  ...       12.770 sec (=   0.213 min)  40.9 %
Solution of CP-SCF eqns.        ...       15.600 sec (=   0.260 min)  50.0 %
                             ****ORCA TERMINATED NORMALLY****
TOTAL RUN TIME: 0 days 0 hours 0 minutes 34 seconds 180 msec
