
                                 *****************
                                 * O   R   C   A *
                                 *****************

                                            #,                                       
                                            ###                                      
                                            ####                                     
                                            #####                                    
                                            ######                                   
                                           ########,                                 
                                     ,,################,,,,,                         
                               ,,#################################,,                 
                          ,,##########################################,,             
                       ,#########################################, ''#####,          
                    ,#############################################,,   '####,        
                  ,##################################################,,,,####,       
                ,###########''''           ''''###############################       
              ,#####''   ,,,,##########,,,,          '''####'''          '####       
            ,##' ,,,,###########################,,,                        '##       
           ' ,,###''''                  '''############,,,                           
         ,,##''                                '''############,,,,        ,,,,,,###''
      ,#''                                            '''#######################'''  
     '                                                          ''''####''''         
             ,#######,   #######,   ,#######,      ##                                
            ,#'     '#,  ##    ##  ,#'     '#,    #''#        ######   ,####,        
            ##       ##  ##   ,#'  ##            #'  '#       #        #'  '#        
            ##       ##  #######   ##           ,######,      #####,   #    #        
            '#,     ,#'  ##    ##  '#,     ,#' ,#      #,         ##   #,  ,#        
             '#######'   ##     ##  '#######'  #'      '#     #####' # '####'        



                  #######################################################
                  #                        -***-                        #
                  #          Department of theory and spectroscopy      #
                  #    Directorship and core code : Frank Neese         #
                  #        Max Planck Institute fuer Kohlenforschung    #
                  #                Kaiser Wilhelm Platz 1               #
                  #                 D-45470 Muelheim/Ruhr               #
                  #                      Germany                        #
                  #                                                     #
                  #                  All rights reserved                #
                  #                        -***-                        #
                  #######################################################


                         Program Version 5.0.4 -  RELEASE  -


 With contributions from (in alphabetic order):
   Daniel Aravena         : Magnetic Suceptibility
   Michael Atanasov       : Ab Initio Ligand Field Theory (pilot matlab implementation)
   Alexander A. Auer      : GIAO ZORA, VPT2 properties, NMR spectrum
   Ute Becker             : Parallelization
   Giovanni Bistoni       : ED, misc. LED, open-shell LED, HFLD
   Martin Brehm           : Molecular dynamics
   Dmytro Bykov           : SCF Hessian
   Vijay G. Chilkuri      : MRCI spin determinant printing, contributions to CSF-ICE
   Dipayan Datta          : RHF DLPNO-CCSD density
   Achintya Kumar Dutta   : EOM-CC, STEOM-CC
   Dmitry Ganyushin       : Spin-Orbit,Spin-Spin,Magnetic field MRCI
   Miquel Garcia          : C-PCM and meta-GGA Hessian, CC/C-PCM, Gaussian charge scheme
   Yang Guo               : DLPNO-NEVPT2, F12-NEVPT2, CIM, IAO-localization
   Andreas Hansen         : Spin unrestricted coupled pair/coupled cluster methods
   Benjamin Helmich-Paris : MC-RPA, TRAH-SCF, COSX integrals
   Lee Huntington         : MR-EOM, pCC
   Robert Izsak           : Overlap fitted RIJCOSX, COSX-SCS-MP3, EOM
   Marcus Kettner         : VPT2
   Christian Kollmar      : KDIIS, OOCD, Brueckner-CCSD(T), CCSD density, CASPT2, CASPT2-K
   Simone Kossmann        : Meta GGA functionals, TD-DFT gradient, OOMP2, MP2 Hessian
   Martin Krupicka        : Initial AUTO-CI
   Lucas Lang             : DCDCAS
   Marvin Lechner         : AUTO-CI (C++ implementation), FIC-MRCC
   Dagmar Lenk            : GEPOL surface, SMD
   Dimitrios Liakos       : Extrapolation schemes; Compound Job, initial MDCI parallelization
   Dimitrios Manganas     : Further ROCIS development; embedding schemes
   Dimitrios Pantazis     : SARC Basis sets
   Anastasios Papadopoulos: AUTO-CI, single reference methods and gradients
   Taras Petrenko         : DFT Hessian,TD-DFT gradient, ASA, ECA, R-Raman, ABS, FL, XAS/XES, NRVS
   Peter Pinski           : DLPNO-MP2, DLPNO-MP2 Gradient
   Christoph Reimann      : Effective Core Potentials
   Marius Retegan         : Local ZFS, SOC
   Christoph Riplinger    : Optimizer, TS searches, QM/MM, DLPNO-CCSD(T), (RO)-DLPNO pert. Triples
   Tobias Risthaus        : Range-separated hybrids, TD-DFT gradient, RPA, STAB
   Michael Roemelt        : Original ROCIS implementation
   Masaaki Saitow         : Open-shell DLPNO-CCSD energy and density
   Barbara Sandhoefer     : DKH picture change effects
   Avijit Sen             : IP-ROCIS
   Kantharuban Sivalingam : CASSCF convergence, NEVPT2, FIC-MRCI
   Bernardo de Souza      : ESD, SOC TD-DFT
   Georgi Stoychev        : AutoAux, RI-MP2 NMR, DLPNO-MP2 response
   Willem Van den Heuvel  : Paramagnetic NMR
   Boris Wezisla          : Elementary symmetry handling
   Frank Wennmohs         : Technical directorship


 We gratefully acknowledge several colleagues who have allowed us to
 interface, adapt or use parts of their codes:
   Stefan Grimme, W. Hujo, H. Kruse, P. Pracht,  : VdW corrections, initial TS optimization,
                  C. Bannwarth, S. Ehlert          DFT functionals, gCP, sTDA/sTD-DF
   Ed Valeev, F. Pavosevic, A. Kumar             : LibInt (2-el integral package), F12 methods
   Garnet Chan, S. Sharma, J. Yang, R. Olivares  : DMRG
   Ulf Ekstrom                                   : XCFun DFT Library
   Mihaly Kallay                                 : mrcc  (arbitrary order and MRCC methods)
   Jiri Pittner, Ondrej Demel                    : Mk-CCSD
   Frank Weinhold                                : gennbo (NPA and NBO analysis)
   Christopher J. Cramer and Donald G. Truhlar   : smd solvation model
   Lars Goerigk                                  : TD-DFT with DH, B97 family of functionals
   V. Asgeirsson, H. Jonsson                     : NEB implementation
   FAccTs GmbH                                   : IRC, NEB, NEB-TS, DLPNO-Multilevel, CI-OPT
                                                   MM, QMMM, 2- and 3-layer-ONIOM, Crystal-QMMM,
                                                   LR-CPCM, SF, NACMEs, symmetry and pop. for TD-DFT,
                                                   nearIR, NL-DFT gradient (VV10), updates on ESD,
                                                   ML-optimized integration grids
   S Lehtola, MJT Oliveira, MAL Marques          : LibXC Library
   Liviu Ungur et al                             : ANISO software


 Your calculation uses the libint2 library for the computation of 2-el integrals
 For citations please refer to: http://libint.valeyev.net

 Your ORCA version has been built with support for libXC version: 5.1.0
 For citations please refer to: https://tddft.org/programs/libxc/

 This ORCA versions uses:
   CBLAS   interface :  Fast vector & matrix operations
   LAPACKE interface :  Fast linear algebra routines
   SCALAPACK package :  Parallel linear algebra routines
   Shared memory     :  Shared parallel matrices
   BLAS/LAPACK       :  OpenBLAS 0.3.15  USE64BITINT DYNAMIC_ARCH NO_AFFINITY SkylakeX SINGLE_THREADED
        Core in use  :  SkylakeX
   Copyright (c) 2011-2014, The OpenBLAS Project


================================================================================

----- Orbital basis set information -----
Your calculation utilizes the basis: aug-cc-pVDZ 
    H, B-Ne : Obtained from the ccRepo (grant-hill.group.shef.ac.uk/ccrepo) Feb. 2017
              R. A. Kendall, T. H. Dunning, Jr., R. J. Harrison, J. Chem. Phys. 96, 6796 (1992)
         He : Obtained from the ccRepo (grant-hill.group.shef.ac.uk/ccrepo) Feb. 2017
              D. E. Woon, T. H. Dunning, Jr., J. Chem. Phys. 100, 2975 (1994)
  Li-Be, Na : Obtained from the ccRepo (grant-hill.group.shef.ac.uk/ccrepo) Feb. 2017
              B. P. Prascher, D. E. Woon, K. A. Peterson, T. H. Dunning, Jr., A. K. Wilson, Theor. Chem. Acc. 128, 69 (2011)
         Mg : Obtained from the Peterson Research Group Website (tyr0.chem.wsu.edu/~kipeters) Feb. 2017
              B. P. Prascher, D. E. Woon, K. A. Peterson, T. H. Dunning, Jr., A. K. Wilson, Theor. Chem. Acc. 128, 69 (2011)
      Al-Ar : Obtained from the ccRepo (grant-hill.group.shef.ac.uk/ccrepo) Feb. 2017
              D. E. Woon, T. H. Dunning, Jr., J. Chem. Phys. 98, 1358 (1993)
      Sc-Zn : Obtained from the ccRepo (grant-hill.group.shef.ac.uk/ccrepo) Feb. 2017
              N. B. Balabanov, K. A. Peterson, J. Chem. Phys. 123, 064107 (2005)
              N. B. Balabanov, K. A. Peterson, J. Chem. Phys. 125, 074110 (2006)
      Ga-Kr : Obtained from the ccRepo (grant-hill.group.shef.ac.uk/ccrepo) Feb. 2017
              A. K. Wilson, D. E. Woon, K. A. Peterson, T. H. Dunning, Jr., J. Chem. Phys. 110, 7667 (1999)

================================================================================
                                        WARNINGS
                       Please study these warnings very carefully!
================================================================================


INFO   : the flag for use of the SHARK integral package has been found!

================================================================================
                                       INPUT FILE
================================================================================
NAME = piridine_efield_x_0.002.inp
|  1> ! hf aug-cc-pVDZ
|  2> ! MiniPrint VeryTightSCF
|  3> %pal
|  4>  nprocs 16
|  5> end
|  6> %MaxCore 2000
|  7> %scf
|  8>  maxiter=200
|  9>  efield 0.002 , 0.0 , 0.0
| 10> end
| 11> %elprop
| 12>   polar 1
| 13> end
| 14> * xyz 0 1
| 15> C       -0.180226841      0.360945118     -1.120304970
| 16> C       -0.180226841      1.559292118     -0.407860970
| 17> C       -0.180226841      1.503191118      0.986935030
| 18> N       -0.180226841      0.360945118      1.29018350
| 19> C       -0.180226841     -0.781300882      0.986935030
| 20> C       -0.180226841     -0.837401882     -0.407860970
| 21> H       -0.180226841      0.360945118     -2.206546970
| 22> H       -0.180226841      2.517950118     -0.917077970
| 23> H       -0.180226841      2.421289118      1.572099030
| 24> H       -0.180226841     -1.699398882      1.572099030
| 25> H       -0.180226841     -1.796059882     -0.917077970
| 26> *
| 27> 
| 28>                          ****END OF INPUT****
================================================================================

                       ****************************
                       * Single Point Calculation *
                       ****************************

---------------------------------
CARTESIAN COORDINATES (ANGSTROEM)
---------------------------------
  C     -0.180227    0.360945   -1.120305
  C     -0.180227    1.559292   -0.407861
  C     -0.180227    1.503191    0.986935
  N     -0.180227    0.360945    1.290183
  C     -0.180227   -0.781301    0.986935
  C     -0.180227   -0.837402   -0.407861
  H     -0.180227    0.360945   -2.206547
  H     -0.180227    2.517950   -0.917078
  H     -0.180227    2.421289    1.572099
  H     -0.180227   -1.699399    1.572099
  H     -0.180227   -1.796060   -0.917078

----------------------------
CARTESIAN COORDINATES (A.U.)
----------------------------
  NO LB      ZA    FRAG     MASS         X           Y           Z
   0 C     6.0000    0    12.011   -0.340579    0.682087   -2.117070
   1 C     6.0000    0    12.011   -0.340579    2.946635   -0.770746
   2 C     6.0000    0    12.011   -0.340579    2.840620    1.865037
   3 N     7.0000    0    14.007   -0.340579    0.682087    2.438093
   4 C     6.0000    0    12.011   -0.340579   -1.476445    1.865037
   5 C     6.0000    0    12.011   -0.340579   -1.582460   -0.770746
   6 H     1.0000    0     1.008   -0.340579    0.682087   -4.169769
   7 H     1.0000    0     1.008   -0.340579    4.758236   -1.733026
   8 H     1.0000    0     1.008   -0.340579    4.575573    2.970837
   9 H     1.0000    0     1.008   -0.340579   -3.211398    2.970837
  10 H     1.0000    0     1.008   -0.340579   -3.394061   -1.733026



           ************************************************************
           *        Program running with 16 parallel MPI-processes    *
           *              working on a common directory               *
           ************************************************************
------------------------------------------------------------------------------
                   ___                                                        
                  /   \      - P O W E R E D   B Y -                         
                 /     \                                                     
                 |  |  |   _    _      __       _____    __    __             
                 |  |  |  | |  | |    /  \     |  _  \  |  |  /  |          
                  \  \/   | |  | |   /    \    | | | |  |  | /  /          
                 / \  \   | |__| |  /  /\  \   | |_| |  |  |/  /          
                |  |  |   |  __  | /  /__\  \  |    /   |      \           
                |  |  |   | |  | | |   __   |  |    \   |  |\   \          
                \     /   | |  | | |  |  |  |  | |\  \  |  | \   \       
                 \___/    |_|  |_| |__|  |__|  |_| \__\ |__|  \__/        
                                                                              
                      - O R C A' S   B I G   F R I E N D -                    
                                      &                                       
                       - I N T E G R A L  F E E D E R -                       
                                                                              
 v1 FN, 2020, v2 2021                                                         
------------------------------------------------------------------------------


Reading SHARK input file piridine_efield_x_0.002.SHARKINP.tmp ... ok
----------------------
SHARK INTEGRAL PACKAGE
----------------------

Number of atoms                             ...     11
Number of basis functions                   ...    219
Number of shells                            ...    115
Maximum angular momentum                    ...      2
Integral batch strategy                     ... SHARK/LIBINT Hybrid
RI-J (if used) integral strategy            ... SPLIT-RIJ (Revised 2003 algorithm where possible)
Printlevel                                  ...      1
Contraction scheme used                     ... PARTIAL GENERAL contraction
Coulomb Range Separation                    ... NOT USED
Exchange Range Separation                   ... NOT USED
Finite Nucleus Model                        ... NOT USED
Auxiliary Coulomb fitting basis             ... NOT available
Auxiliary J/K fitting basis                 ... NOT available
Auxiliary Correlation fitting basis         ... NOT available
Auxiliary 'external' fitting basis          ... NOT available
Integral threshold                          ...     1.000000e-12
Primitive cut-off                           ...     1.000000e-14
Primitive pair pre-selection threshold      ...     1.000000e-14

Calculating pre-screening integrals         ... done (  0.0 sec) Dimension = 115
Calculating pre-screening integrals (ORCA)  ... done (  0.1 sec) Dimension = 79
Organizing shell pair data                  ... done (  0.0 sec)
Shell pair information
Total number of shell pairs                 ...      6670
Shell pairs after pre-screening             ...      6002
Total number of primitive shell pairs       ...      9486
Primitive shell pairs kept                  ...      8107
          la=0 lb=0:   2207 shell pairs
          la=1 lb=0:   2075 shell pairs
          la=1 lb=1:    406 shell pairs
          la=2 lb=0:    900 shell pairs
          la=2 lb=1:    336 shell pairs
          la=2 lb=2:     78 shell pairs

Calculating one electron integrals          ... done (  0.0 sec)
Calculating Nuclear repulsion               ... done (  0.0 sec) ENN=    214.850568283403 Eh

SHARK setup successfully completed in   0.3 seconds

Maximum memory used throughout the entire GTOINT-calculation: 15.5 MB

An Electric Field will be added: 2.000e-03 0.000e+00 0.000e+00 au

  ... done adding electric field perturbation



           ************************************************************
           *        Program running with 16 parallel MPI-processes    *
           *              working on a common directory               *
           ************************************************************

Diagonalization of the overlap matrix:
Smallest eigenvalue                        ... 1.248e-05
Time for diagonalization                   ...    0.004 sec
Threshold for overlap eigenvalues          ... 1.000e-08
Number of eigenvalues below threshold      ... 0
Time for construction of square roots      ...    0.011 sec
Total time needed                          ...    0.016 sec

Time for model grid setup =    0.050 sec

Loading Hartree-Fock densities                     ... done
Calculating cut-offs                               ... done
Initializing the effective Hamiltonian             ... done
Setting up the integral package (SHARK)            ... done
Starting the Coulomb interaction                   ... done (   0.0 sec)
Reading the grid                                   ... done
Mapping shells                                     ... done
Starting the XC term evaluation                    ... done (   0.0 sec)
Transforming the Hamiltonian                       ... done (   0.0 sec)
Diagonalizing the Hamiltonian                      ... done (   0.0 sec)
Back transforming the eigenvectors                 ... done (   0.0 sec)
Now organizing SCF variables                       ... done
--------------
SCF ITERATIONS
--------------
ITER       Energy         Delta-E        Max-DP      RMS-DP      [F,P]     Damp
               ***  Starting incremental Fock matrix formation  ***
  0   -246.3409612492   0.000000000000 0.61299474  0.01387557  0.2816104 0.7000
  1   -246.4378265621  -0.096865312897 0.46442854  0.01032483  0.1778915 0.7000
                               ***Turning on DIIS***
  2   -246.4951365465  -0.057309984431 0.32961847  0.00717335  0.1034235 0.7000
  3   -247.1788297871  -0.683693240595 0.77622656  0.01640010  0.0606933 0.0000
  4   -246.5196961063   0.659133680792 0.02340360  0.00057526  0.0083922 0.0000
                      *** Initiating the SOSCF procedure ***
                           *** Shutting down DIIS ***
                      *** Re-Reading the Fockian *** 
                      *** Removing any level shift *** 
ITER      Energy       Delta-E        Grad      Rot      Max-DP    RMS-DP
  5   -246.60767687  -0.0879807623  0.001469  0.001469  0.017335  0.000377
               *** Restarting incremental Fock matrix formation ***
  6   -246.61223753  -0.0045606571  0.000549  0.001125  0.010961  0.000241
  7   -246.61225669  -0.0000191609  0.000298  0.001219  0.007974  0.000176
  8   -246.61226272  -0.0000060356  0.000093  0.000238  0.000893  0.000026
  9   -246.61226341  -0.0000006897  0.000091  0.000318  0.001175  0.000028
 10   -246.61226363  -0.0000002183  0.000019  0.000067  0.000290  0.000007
 11   -246.61226365  -0.0000000182  0.000008  0.000013  0.000064  0.000002
 12   -246.61226365  -0.0000000025  0.000002  0.000002  0.000021  0.000001
 13   -246.61226365  -0.0000000002  0.000001  0.000001  0.000006  0.000000
                  ***Gradient check signals convergence***
              ***Rediagonalizing the Fockian in SOSCF/NRSCF***

               *****************************************************
               *                     SUCCESS                       *
               *           SCF CONVERGED AFTER  14 CYCLES          *
               *****************************************************

Total Energy       :         -246.61226365 Eh           -6710.66086 eV
  Last Energy change         ...   -2.7285e-11  Tolerance :   1.0000e-09
  Last MAX-Density change    ...    3.4153e-06  Tolerance :   1.0000e-08
             **** THE GBW FILE WAS UPDATED (piridine_efield_x_0.002.gbw) ****
             **** DENSITY piridine_efield_x_0.002.scfp WAS UPDATED ****
             **** ENERGY FILE WAS UPDATED (piridine_efield_x_0.002.en.tmp) ****
             **** THE GBW FILE WAS UPDATED (piridine_efield_x_0.002.gbw) ****
             **** DENSITY piridine_efield_x_0.002.scfp WAS UPDATED ****
----------------
ORBITAL ENERGIES
----------------

  NO   OCC          E(Eh)            E(eV) 
   0   2.0000     -15.528366      -422.5483 
   1   2.0000     -11.269377      -306.6553 
   2   2.0000     -11.269337      -306.6543 
   3   2.0000     -11.248616      -306.0904 
   4   2.0000     -11.241184      -305.8882 
   5   2.0000     -11.241080      -305.8853 
   6   2.0000      -1.341520       -36.5046 
   7   2.0000      -1.081875       -29.4393 
   8   2.0000      -1.075071       -29.2542 
   9   2.0000      -0.883887       -24.0518 
  10   2.0000      -0.842102       -22.9148 
  11   2.0000      -0.743894       -20.2424 
  12   2.0000      -0.700501       -19.0616 
  13   2.0000      -0.644986       -17.5510 
  14   2.0000      -0.600992       -16.3538 
  15   2.0000      -0.592523       -16.1234 
  16   2.0000      -0.573038       -15.5931 
  17   2.0000      -0.532855       -14.4997 
  18   2.0000      -0.384488       -10.4625 
  19   2.0000      -0.347828        -9.4649 
  20   2.0000      -0.329916        -8.9775 
  21   0.0000       0.034508         0.9390 
  22   0.0000       0.041575         1.1313 
  23   0.0000       0.044492         1.2107 
  24   0.0000       0.058278         1.5858 
  25   0.0000       0.064084         1.7438 
  26   0.0000       0.084610         2.3024 
  27   0.0000       0.103507         2.8166 
  28   0.0000       0.114173         3.1068 
  29   0.0000       0.117448         3.1959 
  30   0.0000       0.123267         3.3543 
  31   0.0000       0.129850         3.5334 
  32   0.0000       0.136032         3.7016 
  33   0.0000       0.138812         3.7773 
  34   0.0000       0.149378         4.0648 
  35   0.0000       0.150950         4.1076 
  36   0.0000       0.160396         4.3646 
  37   0.0000       0.161727         4.4008 
  38   0.0000       0.166714         4.5365 
  39   0.0000       0.178611         4.8603 
  40   0.0000       0.186189         5.0665 
  41   0.0000       0.188135         5.1194 
  42   0.0000       0.192821         5.2469 
  43   0.0000       0.201388         5.4800 
  44   0.0000       0.237540         6.4638 
  45   0.0000       0.277022         7.5381 
  46   0.0000       0.277428         7.5492 
  47   0.0000       0.293483         7.9861 
  48   0.0000       0.304454         8.2846 
  49   0.0000       0.307948         8.3797 
  50   0.0000       0.326685         8.8896 
  51   0.0000       0.331871         9.0307 
  52   0.0000       0.334277         9.0961 
  53   0.0000       0.357863         9.7379 
  54   0.0000       0.367466         9.9993 
  55   0.0000       0.368057        10.0153 
  56   0.0000       0.370825        10.0907 
  57   0.0000       0.380990        10.3673 
  58   0.0000       0.403339        10.9754 
  59   0.0000       0.427356        11.6289 
  60   0.0000       0.428129        11.6500 
  61   0.0000       0.431485        11.7413 
  62   0.0000       0.443728        12.0745 
  63   0.0000       0.451833        12.2950 
  64   0.0000       0.468382        12.7453 
  65   0.0000       0.498419        13.5627 
  66   0.0000       0.531602        14.4656 
  67   0.0000       0.548037        14.9129 
  68   0.0000       0.549924        14.9642 
  69   0.0000       0.562782        15.3141 
  70   0.0000       0.573933        15.6175 
  71   0.0000       0.576393        15.6845 
  72   0.0000       0.596792        16.2395 
  73   0.0000       0.605373        16.4730 
  74   0.0000       0.618029        16.8174 
  75   0.0000       0.620251        16.8779 
  76   0.0000       0.649918        17.6852 
  77   0.0000       0.659461        17.9449 
  78   0.0000       0.673762        18.3340 
  79   0.0000       0.675556        18.3828 
  80   0.0000       0.676233        18.4012 
  81   0.0000       0.689394        18.7594 
  82   0.0000       0.689607        18.7652 
  83   0.0000       0.691637        18.8204 
  84   0.0000       0.710090        19.3225 
  85   0.0000       0.727656        19.8005 
  86   0.0000       0.728551        19.8249 
  87   0.0000       0.729272        19.8445 
  88   0.0000       0.756406        20.5829 
  89   0.0000       0.761803        20.7297 
  90   0.0000       0.809765        22.0348 
  91   0.0000       0.816364        22.2144 
  92   0.0000       0.840590        22.8736 
  93   0.0000       0.848793        23.0968 
  94   0.0000       0.867028        23.5930 
  95   0.0000       0.873901        23.7800 
  96   0.0000       0.882480        24.0135 
  97   0.0000       0.905578        24.6420 
  98   0.0000       0.911684        24.8082 
  99   0.0000       0.919478        25.0203 
 100   0.0000       0.936671        25.4881 
 101   0.0000       0.967039        26.3145 
 102   0.0000       0.984049        26.7773 
 103   0.0000       1.006902        27.3992 
 104   0.0000       1.018236        27.7076 
 105   0.0000       1.044576        28.4244 
 106   0.0000       1.089878        29.6571 
 107   0.0000       1.104181        30.0463 
 108   0.0000       1.112110        30.2621 
 109   0.0000       1.113608        30.3028 
 110   0.0000       1.132371        30.8134 
 111   0.0000       1.152292        31.3554 
 112   0.0000       1.180560        32.1247 
 113   0.0000       1.243154        33.8279 
 114   0.0000       1.345794        36.6209 
 115   0.0000       1.362691        37.0807 
 116   0.0000       1.371361        37.3166 
 117   0.0000       1.401297        38.1312 
 118   0.0000       1.403045        38.1788 
 119   0.0000       1.470305        40.0090 
 120   0.0000       1.509219        41.0679 
 121   0.0000       1.512139        41.1474 
 122   0.0000       1.520922        41.3864 
 123   0.0000       1.523920        41.4680 
 124   0.0000       1.596648        43.4470 
 125   0.0000       1.604479        43.6601 
 126   0.0000       1.609175        43.7879 
 127   0.0000       1.630313        44.3631 
 128   0.0000       1.664705        45.2989 
 129   0.0000       1.690176        45.9920 
 130   0.0000       1.690450        45.9995 
 131   0.0000       1.694559        46.1113 
 132   0.0000       1.714078        46.6424 
 133   0.0000       1.747067        47.5401 
 134   0.0000       1.814826        49.3839 
 135   0.0000       1.818951        49.4962 
 136   0.0000       1.847626        50.2764 
 137   0.0000       1.855305        50.4854 
 138   0.0000       1.893850        51.5343 
 139   0.0000       1.914485        52.0958 
 140   0.0000       1.946614        52.9701 
 141   0.0000       1.963327        53.4249 
 142   0.0000       2.000305        54.4311 
 143   0.0000       2.017333        54.8944 
 144   0.0000       2.064386        56.1748 
 145   0.0000       2.110017        57.4165 
 146   0.0000       2.119726        57.6807 
 147   0.0000       2.147810        58.4449 
 148   0.0000       2.162498        58.8446 
 149   0.0000       2.167741        58.9872 
 150   0.0000       2.225200        60.5508 
 151   0.0000       2.250126        61.2290 
 152   0.0000       2.252444        61.2921 
 153   0.0000       2.281412        62.0804 
 154   0.0000       2.325254        63.2734 
 155   0.0000       2.340846        63.6976 
 156   0.0000       2.345939        63.8363 
 157   0.0000       2.362599        64.2896 
 158   0.0000       2.419526        65.8386 
 159   0.0000       2.439044        66.3698 
 160   0.0000       2.469258        67.1919 
 161   0.0000       2.519806        68.5674 
 162   0.0000       2.559296        69.6420 
 163   0.0000       2.590682        70.4960 
 164   0.0000       2.639818        71.8331 
 165   0.0000       2.752827        74.9082 
 166   0.0000       2.824574        76.8606 
 167   0.0000       2.837885        77.2228 
 168   0.0000       2.846719        77.4632 
 169   0.0000       2.914530        79.3084 
 170   0.0000       2.936688        79.9113 
 171   0.0000       2.953941        80.3808 
 172   0.0000       2.985289        81.2339 
 173   0.0000       3.105453        84.5037 
 174   0.0000       3.140652        85.4615 
 175   0.0000       3.196701        86.9867 
 176   0.0000       3.310003        90.0698 
 177   0.0000       3.456500        94.0561 
 178   0.0000       3.505494        95.3894 
 179   0.0000       3.609996        98.2330 
 180   0.0000       3.946649       107.3938 
 181   0.0000       3.966621       107.9372 
 182   0.0000       4.506638       122.6318 
Total SCF time: 0 days 0 hours 0 min 10 sec 

Maximum memory used throughout the entire SCF-calculation: 229.7 MB

-------------------------   --------------------
FINAL SINGLE POINT ENERGY      -246.612263651198
-------------------------   --------------------


                            ***************************************
                            *     ORCA property calculations      *
                            ***************************************

                                    ---------------------
                                    Active property flags
                                    ---------------------
   (+) Dipole Moment
   (+) Polarizability


------------------------------------------------------------------------------
                       ORCA ELECTRIC PROPERTIES CALCULATION
------------------------------------------------------------------------------

Dipole Moment Calculation                       ... on
Quadrupole Moment Calculation                   ... off
Polarizability Calculation                      ... Analytic (CP-SCF)
GBWName                                         ... piridine_efield_x_0.002.gbw
Electron density                                ... piridine_efield_x_0.002.scfp
The origin for moment calculation is the CENTER OF MASS  = (-0.340579,  0.682087  0.420996)

-------------
DIPOLE MOMENT
-------------
                                X             Y             Z
Electronic contribution:      0.07961      -0.00000       1.47738
Nuclear contribution   :      0.00000      -0.00000      -1.88024
                        -----------------------------------------
Total Dipole Moment    :      0.07961      -0.00000      -0.40286
                        -----------------------------------------
Magnitude (a.u.)       :      0.41065
Magnitude (Debye)      :      1.04379



--------------------
Rotational spectrum 
--------------------
 
Rotational constants in cm-1:     0.229528     0.201222     0.107222 
Rotational constants in MHz :  6881.073070  6032.486698  3214.449192 

 Dipole components along the rotational axes: 
x,y,z [a.u.] :    -0.000000    -0.402862    -0.079606 
x,y,z [Debye]:    -0.000000    -1.023995    -0.202343 

 
Transforming and storing MO dipole integrals   ... done

                ... starting polarizability calculation

The origin for moment calculation is the CENTER OF MASS  = (-0.340579,  0.682087  0.420996)
Opening the Dipole integral file               ... (piridine_efield_x_0.002.dmo.tmp) done
Reading Dipole-MO integrals                    ... done
Solving CP-SCF equations                       ... 

           ************************************************************
           *        Program running with 16 parallel MPI-processes    *
           *              working on a common directory               *
           ************************************************************

------------------------------------------------------------------------------
                           ORCA CP-SCF CALCULATION
------------------------------------------------------------------------------

Input orbitals are from        ... piridine_efield_x_0.002.gbw
Input Perturbation             ... piridine_efield_x_0.002.cpv.tmp
Wavefunction output            ... piridine_efield_x_0.002.cpu.tmp
Perturbation mode              ... Real perturbation (singlet)
Solver                         ... POPLE
Max. number of iterations      ... 64
Convergence tolerance          ... 3.000e-05
Integral handling              ... Direct
Number of perturbations        ... 3
Number of operators            ... 1
Orbital ranges used for CP-SCF:
 Operator 0:  Orbitals   0... 20  to  21...182
Variables per perturbation     ... 3402
Memory available               ... 1993.8 MB
Memory needed per perturbation ...   1.0 MB
Perturbations treated per batch... 3
Number of batches              ... 1
     CP-SCF ITERATION   0:   2.0805e+00 (   1.2 sec   0/  3 done)
     CP-SCF ITERATION   1:   4.0958e-01 (   1.2 sec   0/  3 done)
     CP-SCF ITERATION   2:   1.2133e-01 (   1.2 sec   0/  3 done)
     CP-SCF ITERATION   3:   5.3613e-02 (   1.2 sec   0/  3 done)
     CP-SCF ITERATION   4:   2.1189e-02 (   1.2 sec   0/  3 done)
     CP-SCF ITERATION   5:   9.5551e-03 (   1.2 sec   0/  3 done)
     CP-SCF ITERATION   6:   2.7407e-03 (   1.2 sec   0/  3 done)
     CP-SCF ITERATION   7:   5.8767e-04 (   1.2 sec   0/  3 done)
     CP-SCF ITERATION   8:   1.4741e-04 (   1.1 sec   0/  3 done)
     CP-SCF ITERATION   9:   4.4856e-05 (   1.2 sec   2/  3 done)
     CP-SCF ITERATION  10:   1.2023e-05 (   0.9 sec   3/  3 done)
                    *** THE CP-SCF HAS CONVERGED ***
done
Reading CP-SCF coefficients                    ... done
Doing the polarizability tensor                ... done
Cleaning up                                    ... done

-------------------------
THE POLARIZABILITY TENSOR
-------------------------

The raw cartesian tensor (atomic units):
   39.81622      0.00000      0.04964  
    0.00000     79.88077      0.00000  
    0.04964      0.00000     65.70364  
diagonalized tensor: 
   39.81613     65.70373     79.88077  

    1.00000      0.00192      0.00000  
   -0.00000     -0.00000      1.00000  
   -0.00192      1.00000      0.00000  

Isotropic polarizability :  61.80021


Timings for individual modules:

Sum of individual times         ...       31.191 sec (=   0.520 min)
GTO integral calculation        ...        2.785 sec (=   0.046 min)   8.9 %
SCF iterations                  ...       12.754 sec (=   0.213 min)  40.9 %
Solution of CP-SCF eqns.        ...       15.652 sec (=   0.261 min)  50.2 %
                             ****ORCA TERMINATED NORMALLY****
TOTAL RUN TIME: 0 days 0 hours 0 minutes 34 seconds 137 msec
