
                                 *****************
                                 * O   R   C   A *
                                 *****************

                                            #,                                       
                                            ###                                      
                                            ####                                     
                                            #####                                    
                                            ######                                   
                                           ########,                                 
                                     ,,################,,,,,                         
                               ,,#################################,,                 
                          ,,##########################################,,             
                       ,#########################################, ''#####,          
                    ,#############################################,,   '####,        
                  ,##################################################,,,,####,       
                ,###########''''           ''''###############################       
              ,#####''   ,,,,##########,,,,          '''####'''          '####       
            ,##' ,,,,###########################,,,                        '##       
           ' ,,###''''                  '''############,,,                           
         ,,##''                                '''############,,,,        ,,,,,,###''
      ,#''                                            '''#######################'''  
     '                                                          ''''####''''         
             ,#######,   #######,   ,#######,      ##                                
            ,#'     '#,  ##    ##  ,#'     '#,    #''#        ######   ,####,        
            ##       ##  ##   ,#'  ##            #'  '#       #        #'  '#        
            ##       ##  #######   ##           ,######,      #####,   #    #        
            '#,     ,#'  ##    ##  '#,     ,#' ,#      #,         ##   #,  ,#        
             '#######'   ##     ##  '#######'  #'      '#     #####' # '####'        



                  #######################################################
                  #                        -***-                        #
                  #          Department of theory and spectroscopy      #
                  #    Directorship and core code : Frank Neese         #
                  #        Max Planck Institute fuer Kohlenforschung    #
                  #                Kaiser Wilhelm Platz 1               #
                  #                 D-45470 Muelheim/Ruhr               #
                  #                      Germany                        #
                  #                                                     #
                  #                  All rights reserved                #
                  #                        -***-                        #
                  #######################################################


                         Program Version 5.0.4 -  RELEASE  -


 With contributions from (in alphabetic order):
   Daniel Aravena         : Magnetic Suceptibility
   Michael Atanasov       : Ab Initio Ligand Field Theory (pilot matlab implementation)
   Alexander A. Auer      : GIAO ZORA, VPT2 properties, NMR spectrum
   Ute Becker             : Parallelization
   Giovanni Bistoni       : ED, misc. LED, open-shell LED, HFLD
   Martin Brehm           : Molecular dynamics
   Dmytro Bykov           : SCF Hessian
   Vijay G. Chilkuri      : MRCI spin determinant printing, contributions to CSF-ICE
   Dipayan Datta          : RHF DLPNO-CCSD density
   Achintya Kumar Dutta   : EOM-CC, STEOM-CC
   Dmitry Ganyushin       : Spin-Orbit,Spin-Spin,Magnetic field MRCI
   Miquel Garcia          : C-PCM and meta-GGA Hessian, CC/C-PCM, Gaussian charge scheme
   Yang Guo               : DLPNO-NEVPT2, F12-NEVPT2, CIM, IAO-localization
   Andreas Hansen         : Spin unrestricted coupled pair/coupled cluster methods
   Benjamin Helmich-Paris : MC-RPA, TRAH-SCF, COSX integrals
   Lee Huntington         : MR-EOM, pCC
   Robert Izsak           : Overlap fitted RIJCOSX, COSX-SCS-MP3, EOM
   Marcus Kettner         : VPT2
   Christian Kollmar      : KDIIS, OOCD, Brueckner-CCSD(T), CCSD density, CASPT2, CASPT2-K
   Simone Kossmann        : Meta GGA functionals, TD-DFT gradient, OOMP2, MP2 Hessian
   Martin Krupicka        : Initial AUTO-CI
   Lucas Lang             : DCDCAS
   Marvin Lechner         : AUTO-CI (C++ implementation), FIC-MRCC
   Dagmar Lenk            : GEPOL surface, SMD
   Dimitrios Liakos       : Extrapolation schemes; Compound Job, initial MDCI parallelization
   Dimitrios Manganas     : Further ROCIS development; embedding schemes
   Dimitrios Pantazis     : SARC Basis sets
   Anastasios Papadopoulos: AUTO-CI, single reference methods and gradients
   Taras Petrenko         : DFT Hessian,TD-DFT gradient, ASA, ECA, R-Raman, ABS, FL, XAS/XES, NRVS
   Peter Pinski           : DLPNO-MP2, DLPNO-MP2 Gradient
   Christoph Reimann      : Effective Core Potentials
   Marius Retegan         : Local ZFS, SOC
   Christoph Riplinger    : Optimizer, TS searches, QM/MM, DLPNO-CCSD(T), (RO)-DLPNO pert. Triples
   Tobias Risthaus        : Range-separated hybrids, TD-DFT gradient, RPA, STAB
   Michael Roemelt        : Original ROCIS implementation
   Masaaki Saitow         : Open-shell DLPNO-CCSD energy and density
   Barbara Sandhoefer     : DKH picture change effects
   Avijit Sen             : IP-ROCIS
   Kantharuban Sivalingam : CASSCF convergence, NEVPT2, FIC-MRCI
   Bernardo de Souza      : ESD, SOC TD-DFT
   Georgi Stoychev        : AutoAux, RI-MP2 NMR, DLPNO-MP2 response
   Willem Van den Heuvel  : Paramagnetic NMR
   Boris Wezisla          : Elementary symmetry handling
   Frank Wennmohs         : Technical directorship


 We gratefully acknowledge several colleagues who have allowed us to
 interface, adapt or use parts of their codes:
   Stefan Grimme, W. Hujo, H. Kruse, P. Pracht,  : VdW corrections, initial TS optimization,
                  C. Bannwarth, S. Ehlert          DFT functionals, gCP, sTDA/sTD-DF
   Ed Valeev, F. Pavosevic, A. Kumar             : LibInt (2-el integral package), F12 methods
   Garnet Chan, S. Sharma, J. Yang, R. Olivares  : DMRG
   Ulf Ekstrom                                   : XCFun DFT Library
   Mihaly Kallay                                 : mrcc  (arbitrary order and MRCC methods)
   Jiri Pittner, Ondrej Demel                    : Mk-CCSD
   Frank Weinhold                                : gennbo (NPA and NBO analysis)
   Christopher J. Cramer and Donald G. Truhlar   : smd solvation model
   Lars Goerigk                                  : TD-DFT with DH, B97 family of functionals
   V. Asgeirsson, H. Jonsson                     : NEB implementation
   FAccTs GmbH                                   : IRC, NEB, NEB-TS, DLPNO-Multilevel, CI-OPT
                                                   MM, QMMM, 2- and 3-layer-ONIOM, Crystal-QMMM,
                                                   LR-CPCM, SF, NACMEs, symmetry and pop. for TD-DFT,
                                                   nearIR, NL-DFT gradient (VV10), updates on ESD,
                                                   ML-optimized integration grids
   S Lehtola, MJT Oliveira, MAL Marques          : LibXC Library
   Liviu Ungur et al                             : ANISO software


 Your calculation uses the libint2 library for the computation of 2-el integrals
 For citations please refer to: http://libint.valeyev.net

 Your ORCA version has been built with support for libXC version: 5.1.0
 For citations please refer to: https://tddft.org/programs/libxc/

 This ORCA versions uses:
   CBLAS   interface :  Fast vector & matrix operations
   LAPACKE interface :  Fast linear algebra routines
   SCALAPACK package :  Parallel linear algebra routines
   Shared memory     :  Shared parallel matrices
   BLAS/LAPACK       :  OpenBLAS 0.3.15  USE64BITINT DYNAMIC_ARCH NO_AFFINITY SkylakeX SINGLE_THREADED
        Core in use  :  SkylakeX
   Copyright (c) 2011-2014, The OpenBLAS Project


================================================================================

----- Orbital basis set information -----
Your calculation utilizes the basis: aug-cc-pVDZ 
    H, B-Ne : Obtained from the ccRepo (grant-hill.group.shef.ac.uk/ccrepo) Feb. 2017
              R. A. Kendall, T. H. Dunning, Jr., R. J. Harrison, J. Chem. Phys. 96, 6796 (1992)
         He : Obtained from the ccRepo (grant-hill.group.shef.ac.uk/ccrepo) Feb. 2017
              D. E. Woon, T. H. Dunning, Jr., J. Chem. Phys. 100, 2975 (1994)
  Li-Be, Na : Obtained from the ccRepo (grant-hill.group.shef.ac.uk/ccrepo) Feb. 2017
              B. P. Prascher, D. E. Woon, K. A. Peterson, T. H. Dunning, Jr., A. K. Wilson, Theor. Chem. Acc. 128, 69 (2011)
         Mg : Obtained from the Peterson Research Group Website (tyr0.chem.wsu.edu/~kipeters) Feb. 2017
              B. P. Prascher, D. E. Woon, K. A. Peterson, T. H. Dunning, Jr., A. K. Wilson, Theor. Chem. Acc. 128, 69 (2011)
      Al-Ar : Obtained from the ccRepo (grant-hill.group.shef.ac.uk/ccrepo) Feb. 2017
              D. E. Woon, T. H. Dunning, Jr., J. Chem. Phys. 98, 1358 (1993)
      Sc-Zn : Obtained from the ccRepo (grant-hill.group.shef.ac.uk/ccrepo) Feb. 2017
              N. B. Balabanov, K. A. Peterson, J. Chem. Phys. 123, 064107 (2005)
              N. B. Balabanov, K. A. Peterson, J. Chem. Phys. 125, 074110 (2006)
      Ga-Kr : Obtained from the ccRepo (grant-hill.group.shef.ac.uk/ccrepo) Feb. 2017
              A. K. Wilson, D. E. Woon, K. A. Peterson, T. H. Dunning, Jr., J. Chem. Phys. 110, 7667 (1999)

================================================================================
                                        WARNINGS
                       Please study these warnings very carefully!
================================================================================


INFO   : the flag for use of the SHARK integral package has been found!

================================================================================
                                       INPUT FILE
================================================================================
NAME = piridine_efield_y_-0.008.inp
|  1> ! hf aug-cc-pVDZ
|  2> ! MiniPrint VeryTightSCF
|  3> %pal
|  4>  nprocs 16
|  5> end
|  6> %MaxCore 2000
|  7> %scf
|  8>  maxiter=200
|  9>  efield 0.0 , -0.008 , 0.0
| 10> end
| 11> %elprop
| 12>   polar 1
| 13> end
| 14> * xyz 0 1
| 15> C       -0.180226841      0.360945118     -1.120304970
| 16> C       -0.180226841      1.559292118     -0.407860970
| 17> C       -0.180226841      1.503191118      0.986935030
| 18> N       -0.180226841      0.360945118      1.29018350
| 19> C       -0.180226841     -0.781300882      0.986935030
| 20> C       -0.180226841     -0.837401882     -0.407860970
| 21> H       -0.180226841      0.360945118     -2.206546970
| 22> H       -0.180226841      2.517950118     -0.917077970
| 23> H       -0.180226841      2.421289118      1.572099030
| 24> H       -0.180226841     -1.699398882      1.572099030
| 25> H       -0.180226841     -1.796059882     -0.917077970
| 26> *
| 27> 
| 28>                          ****END OF INPUT****
================================================================================

                       ****************************
                       * Single Point Calculation *
                       ****************************

---------------------------------
CARTESIAN COORDINATES (ANGSTROEM)
---------------------------------
  C     -0.180227    0.360945   -1.120305
  C     -0.180227    1.559292   -0.407861
  C     -0.180227    1.503191    0.986935
  N     -0.180227    0.360945    1.290183
  C     -0.180227   -0.781301    0.986935
  C     -0.180227   -0.837402   -0.407861
  H     -0.180227    0.360945   -2.206547
  H     -0.180227    2.517950   -0.917078
  H     -0.180227    2.421289    1.572099
  H     -0.180227   -1.699399    1.572099
  H     -0.180227   -1.796060   -0.917078

----------------------------
CARTESIAN COORDINATES (A.U.)
----------------------------
  NO LB      ZA    FRAG     MASS         X           Y           Z
   0 C     6.0000    0    12.011   -0.340579    0.682087   -2.117070
   1 C     6.0000    0    12.011   -0.340579    2.946635   -0.770746
   2 C     6.0000    0    12.011   -0.340579    2.840620    1.865037
   3 N     7.0000    0    14.007   -0.340579    0.682087    2.438093
   4 C     6.0000    0    12.011   -0.340579   -1.476445    1.865037
   5 C     6.0000    0    12.011   -0.340579   -1.582460   -0.770746
   6 H     1.0000    0     1.008   -0.340579    0.682087   -4.169769
   7 H     1.0000    0     1.008   -0.340579    4.758236   -1.733026
   8 H     1.0000    0     1.008   -0.340579    4.575573    2.970837
   9 H     1.0000    0     1.008   -0.340579   -3.211398    2.970837
  10 H     1.0000    0     1.008   -0.340579   -3.394061   -1.733026



           ************************************************************
           *        Program running with 16 parallel MPI-processes    *
           *              working on a common directory               *
           ************************************************************
------------------------------------------------------------------------------
                   ___                                                        
                  /   \      - P O W E R E D   B Y -                         
                 /     \                                                     
                 |  |  |   _    _      __       _____    __    __             
                 |  |  |  | |  | |    /  \     |  _  \  |  |  /  |          
                  \  \/   | |  | |   /    \    | | | |  |  | /  /          
                 / \  \   | |__| |  /  /\  \   | |_| |  |  |/  /          
                |  |  |   |  __  | /  /__\  \  |    /   |      \           
                |  |  |   | |  | | |   __   |  |    \   |  |\   \          
                \     /   | |  | | |  |  |  |  | |\  \  |  | \   \       
                 \___/    |_|  |_| |__|  |__|  |_| \__\ |__|  \__/        
                                                                              
                      - O R C A' S   B I G   F R I E N D -                    
                                      &                                       
                       - I N T E G R A L  F E E D E R -                       
                                                                              
 v1 FN, 2020, v2 2021                                                         
------------------------------------------------------------------------------


Reading SHARK input file piridine_efield_y_-0.008.SHARKINP.tmp ... ok
----------------------
SHARK INTEGRAL PACKAGE
----------------------

Number of atoms                             ...     11
Number of basis functions                   ...    219
Number of shells                            ...    115
Maximum angular momentum                    ...      2
Integral batch strategy                     ... SHARK/LIBINT Hybrid
RI-J (if used) integral strategy            ... SPLIT-RIJ (Revised 2003 algorithm where possible)
Printlevel                                  ...      1
Contraction scheme used                     ... PARTIAL GENERAL contraction
Coulomb Range Separation                    ... NOT USED
Exchange Range Separation                   ... NOT USED
Finite Nucleus Model                        ... NOT USED
Auxiliary Coulomb fitting basis             ... NOT available
Auxiliary J/K fitting basis                 ... NOT available
Auxiliary Correlation fitting basis         ... NOT available
Auxiliary 'external' fitting basis          ... NOT available
Integral threshold                          ...     1.000000e-12
Primitive cut-off                           ...     1.000000e-14
Primitive pair pre-selection threshold      ...     1.000000e-14

Calculating pre-screening integrals         ... done (  0.0 sec) Dimension = 115
Calculating pre-screening integrals (ORCA)  ... done (  0.1 sec) Dimension = 79
Organizing shell pair data                  ... done (  0.0 sec)
Shell pair information
Total number of shell pairs                 ...      6670
Shell pairs after pre-screening             ...      6002
Total number of primitive shell pairs       ...      9486
Primitive shell pairs kept                  ...      8107
          la=0 lb=0:   2207 shell pairs
          la=1 lb=0:   2075 shell pairs
          la=1 lb=1:    406 shell pairs
          la=2 lb=0:    900 shell pairs
          la=2 lb=1:    336 shell pairs
          la=2 lb=2:     78 shell pairs

Calculating one electron integrals          ... done (  0.0 sec)
Calculating Nuclear repulsion               ... done (  0.0 sec) ENN=    214.850568283403 Eh

SHARK setup successfully completed in   0.2 seconds

Maximum memory used throughout the entire GTOINT-calculation: 15.5 MB

An Electric Field will be added: 0.000e+00 -8.000e-03 0.000e+00 au

  ... done adding electric field perturbation



           ************************************************************
           *        Program running with 16 parallel MPI-processes    *
           *              working on a common directory               *
           ************************************************************

Diagonalization of the overlap matrix:
Smallest eigenvalue                        ... 1.248e-05
Time for diagonalization                   ...    0.004 sec
Threshold for overlap eigenvalues          ... 1.000e-08
Number of eigenvalues below threshold      ... 0
Time for construction of square roots      ...    0.013 sec
Total time needed                          ...    0.018 sec

Time for model grid setup =    0.049 sec

Loading Hartree-Fock densities                     ... done
Calculating cut-offs                               ... done
Initializing the effective Hamiltonian             ... done
Setting up the integral package (SHARK)            ... done
Starting the Coulomb interaction                   ... done (   0.0 sec)
Reading the grid                                   ... done
Mapping shells                                     ... done
Starting the XC term evaluation                    ... done (   0.0 sec)
Transforming the Hamiltonian                       ... done (   0.0 sec)
Diagonalizing the Hamiltonian                      ... done (   0.0 sec)
Back transforming the eigenvectors                 ... done (   0.0 sec)
Now organizing SCF variables                       ... done
--------------
SCF ITERATIONS
--------------
ITER       Energy         Delta-E        Max-DP      RMS-DP      [F,P]     Damp
               ***  Starting incremental Fock matrix formation  ***
  0   -246.3397056187   0.000000000000 0.63794671  0.01389522  0.2814821 0.7000
  1   -246.4381116330  -0.098406014321 0.48039318  0.01034042  0.1778035 0.7000
                               ***Turning on DIIS***
  2   -246.4961838050  -0.058072171965 0.33840267  0.00718539  0.1033712 0.7000
  3   -247.1747663505  -0.678582545495 0.78770260  0.01643517  0.0606769 0.0000
  4   -246.5214773841   0.653288966397 0.02475381  0.00062001  0.0083845 0.0000
                      *** Initiating the SOSCF procedure ***
                           *** Shutting down DIIS ***
                      *** Re-Reading the Fockian *** 
                      *** Removing any level shift *** 
ITER      Energy       Delta-E        Grad      Rot      Max-DP    RMS-DP
  5   -246.61022678  -0.0887493936  0.001304  0.001304  0.018086  0.000401
               *** Restarting incremental Fock matrix formation ***
  6   -246.61471604  -0.0044892648  0.000496  0.001532  0.013283  0.000259
  7   -246.61473688  -0.0000208396  0.000288  0.001199  0.009437  0.000182
  8   -246.61474314  -0.0000062539  0.000082  0.000227  0.001026  0.000027
  9   -246.61474380  -0.0000006638  0.000080  0.000273  0.001278  0.000027
 10   -246.61474401  -0.0000002126  0.000018  0.000076  0.000321  0.000007
 11   -246.61474403  -0.0000000222  0.000008  0.000016  0.000089  0.000002
 12   -246.61474404  -0.0000000028  0.000003  0.000002  0.000035  0.000001
 13   -246.61474404  -0.0000000003  0.000001  0.000001  0.000008  0.000000
                  ***Gradient check signals convergence***
              ***Rediagonalizing the Fockian in SOSCF/NRSCF***

               *****************************************************
               *                     SUCCESS                       *
               *           SCF CONVERGED AFTER  14 CYCLES          *
               *****************************************************

Total Energy       :         -246.61474404 Eh           -6710.72835 eV
  Last Energy change         ...   -1.1369e-13  Tolerance :   1.0000e-09
  Last MAX-Density change    ...    4.0462e-06  Tolerance :   1.0000e-08
             **** THE GBW FILE WAS UPDATED (piridine_efield_y_-0.008.gbw) ****
             **** DENSITY piridine_efield_y_-0.008.scfp WAS UPDATED ****
             **** ENERGY FILE WAS UPDATED (piridine_efield_y_-0.008.en.tmp) ****
             **** THE GBW FILE WAS UPDATED (piridine_efield_y_-0.008.gbw) ****
             **** DENSITY piridine_efield_y_-0.008.scfp WAS UPDATED ****
----------------
ORBITAL ENERGIES
----------------

  NO   OCC          E(Eh)            E(eV) 
   0   2.0000     -15.529014      -422.5660 
   1   2.0000     -11.275475      -306.8213 
   2   2.0000     -11.264325      -306.5179 
   3   2.0000     -11.249147      -306.1048 
   4   2.0000     -11.247210      -306.0521 
   5   2.0000     -11.236121      -305.7504 
   6   2.0000      -1.342098       -36.5203 
   7   2.0000      -1.082871       -29.4664 
   8   2.0000      -1.075198       -29.2576 
   9   2.0000      -0.884508       -24.0687 
  10   2.0000      -0.842613       -22.9287 
  11   2.0000      -0.744907       -20.2699 
  12   2.0000      -0.700614       -19.0647 
  13   2.0000      -0.645638       -17.5687 
  14   2.0000      -0.601498       -16.3676 
  15   2.0000      -0.593153       -16.1405 
  16   2.0000      -0.573212       -15.5979 
  17   2.0000      -0.532610       -14.4931 
  18   2.0000      -0.385287       -10.4842 
  19   2.0000      -0.347951        -9.4682 
  20   2.0000      -0.330270        -8.9871 
  21   0.0000      -0.016135        -0.4391 
  22   0.0000       0.001510         0.0411 
  23   0.0000       0.044585         1.2132 
  24   0.0000       0.074368         2.0237 
  25   0.0000       0.080810         2.1989 
  26   0.0000       0.090116         2.4522 
  27   0.0000       0.097743         2.6597 
  28   0.0000       0.104872         2.8537 
  29   0.0000       0.111734         3.0404 
  30   0.0000       0.121708         3.3119 
  31   0.0000       0.122400         3.3307 
  32   0.0000       0.123671         3.3653 
  33   0.0000       0.135209         3.6792 
  34   0.0000       0.144113         3.9215 
  35   0.0000       0.146167         3.9774 
  36   0.0000       0.161060         4.3827 
  37   0.0000       0.163242         4.4420 
  38   0.0000       0.184893         5.0312 
  39   0.0000       0.189240         5.1495 
  40   0.0000       0.195494         5.3197 
  41   0.0000       0.203149         5.5280 
  42   0.0000       0.206977         5.6321 
  43   0.0000       0.219101         5.9621 
  44   0.0000       0.235536         6.4093 
  45   0.0000       0.275061         7.4848 
  46   0.0000       0.278002         7.5648 
  47   0.0000       0.292144         7.9496 
  48   0.0000       0.305401         8.3104 
  49   0.0000       0.307046         8.3552 
  50   0.0000       0.325034         8.8446 
  51   0.0000       0.329822         8.9749 
  52   0.0000       0.344519         9.3748 
  53   0.0000       0.352028         9.5792 
  54   0.0000       0.361671         9.8416 
  55   0.0000       0.365397         9.9430 
  56   0.0000       0.366388         9.9699 
  57   0.0000       0.380016        10.3408 
  58   0.0000       0.396078        10.7778 
  59   0.0000       0.427647        11.6369 
  60   0.0000       0.435611        11.8536 
  61   0.0000       0.441793        12.0218 
  62   0.0000       0.446353        12.1459 
  63   0.0000       0.455484        12.3944 
  64   0.0000       0.469598        12.7784 
  65   0.0000       0.494950        13.4683 
  66   0.0000       0.537296        14.6206 
  67   0.0000       0.547092        14.8871 
  68   0.0000       0.548945        14.9376 
  69   0.0000       0.562276        15.3003 
  70   0.0000       0.573421        15.6036 
  71   0.0000       0.575424        15.6581 
  72   0.0000       0.597390        16.2558 
  73   0.0000       0.603357        16.4182 
  74   0.0000       0.613999        16.7078 
  75   0.0000       0.626014        17.0347 
  76   0.0000       0.644706        17.5433 
  77   0.0000       0.657360        17.8877 
  78   0.0000       0.670749        18.2520 
  79   0.0000       0.672036        18.2870 
  80   0.0000       0.674650        18.3582 
  81   0.0000       0.688651        18.7392 
  82   0.0000       0.692636        18.8476 
  83   0.0000       0.695793        18.9335 
  84   0.0000       0.713188        19.4068 
  85   0.0000       0.728757        19.8305 
  86   0.0000       0.730338        19.8735 
  87   0.0000       0.730761        19.8850 
  88   0.0000       0.757530        20.6134 
  89   0.0000       0.767574        20.8867 
  90   0.0000       0.809227        22.0202 
  91   0.0000       0.814530        22.1645 
  92   0.0000       0.839607        22.8469 
  93   0.0000       0.848942        23.1009 
  94   0.0000       0.867769        23.6132 
  95   0.0000       0.875816        23.8322 
  96   0.0000       0.881925        23.9984 
  97   0.0000       0.904936        24.6246 
  98   0.0000       0.912259        24.8238 
  99   0.0000       0.918987        25.0069 
 100   0.0000       0.936438        25.4818 
 101   0.0000       0.967826        26.3359 
 102   0.0000       0.983154        26.7530 
 103   0.0000       1.007283        27.4096 
 104   0.0000       1.017558        27.6892 
 105   0.0000       1.045646        28.4535 
 106   0.0000       1.090140        29.6642 
 107   0.0000       1.102379        29.9972 
 108   0.0000       1.111999        30.2590 
 109   0.0000       1.115438        30.3526 
 110   0.0000       1.132107        30.8062 
 111   0.0000       1.152189        31.3526 
 112   0.0000       1.181427        32.1483 
 113   0.0000       1.242914        33.8214 
 114   0.0000       1.345445        36.6114 
 115   0.0000       1.362104        37.0647 
 116   0.0000       1.370311        37.2880 
 117   0.0000       1.401559        38.1384 
 118   0.0000       1.402636        38.1677 
 119   0.0000       1.469773        39.9946 
 120   0.0000       1.507425        41.0191 
 121   0.0000       1.511430        41.1281 
 122   0.0000       1.520167        41.3659 
 123   0.0000       1.525300        41.5055 
 124   0.0000       1.595247        43.4089 
 125   0.0000       1.604149        43.6511 
 126   0.0000       1.610336        43.8195 
 127   0.0000       1.628284        44.3079 
 128   0.0000       1.666924        45.3593 
 129   0.0000       1.688106        45.9357 
 130   0.0000       1.690232        45.9935 
 131   0.0000       1.695778        46.1445 
 132   0.0000       1.713709        46.6324 
 133   0.0000       1.746019        47.5116 
 134   0.0000       1.813546        49.3491 
 135   0.0000       1.819751        49.5179 
 136   0.0000       1.846916        50.2571 
 137   0.0000       1.855298        50.4852 
 138   0.0000       1.893844        51.5341 
 139   0.0000       1.914709        52.1019 
 140   0.0000       1.946127        52.9568 
 141   0.0000       1.963129        53.4195 
 142   0.0000       1.999467        54.4083 
 143   0.0000       2.017079        54.8875 
 144   0.0000       2.064326        56.1732 
 145   0.0000       2.107565        57.3498 
 146   0.0000       2.121226        57.7215 
 147   0.0000       2.146482        58.4088 
 148   0.0000       2.162049        58.8323 
 149   0.0000       2.167791        58.9886 
 150   0.0000       2.225269        60.5526 
 151   0.0000       2.246819        61.1391 
 152   0.0000       2.254770        61.3554 
 153   0.0000       2.281573        62.0848 
 154   0.0000       2.325268        63.2737 
 155   0.0000       2.340608        63.6912 
 156   0.0000       2.344139        63.7873 
 157   0.0000       2.363924        64.3256 
 158   0.0000       2.419365        65.8343 
 159   0.0000       2.438889        66.3656 
 160   0.0000       2.468898        67.1821 
 161   0.0000       2.519495        68.5589 
 162   0.0000       2.559114        69.6370 
 163   0.0000       2.590171        70.4821 
 164   0.0000       2.639348        71.8203 
 165   0.0000       2.752473        74.8986 
 166   0.0000       2.823780        76.8389 
 167   0.0000       2.837834        77.2214 
 168   0.0000       2.846295        77.4516 
 169   0.0000       2.913938        79.2923 
 170   0.0000       2.936577        79.9083 
 171   0.0000       2.953454        80.3676 
 172   0.0000       2.985499        81.2396 
 173   0.0000       3.105060        84.4930 
 174   0.0000       3.140181        85.4487 
 175   0.0000       3.196309        86.9760 
 176   0.0000       3.309767        90.0634 
 177   0.0000       3.456170        94.0472 
 178   0.0000       3.505198        95.3813 
 179   0.0000       3.609608        98.2224 
 180   0.0000       3.945950       107.3748 
 181   0.0000       3.966471       107.9332 
 182   0.0000       4.506199       122.6199 
Total SCF time: 0 days 0 hours 0 min 10 sec 

Maximum memory used throughout the entire SCF-calculation: 229.7 MB

-------------------------   --------------------
FINAL SINGLE POINT ENERGY      -246.614744037707
-------------------------   --------------------


                            ***************************************
                            *     ORCA property calculations      *
                            ***************************************

                                    ---------------------
                                    Active property flags
                                    ---------------------
   (+) Dipole Moment
   (+) Polarizability


------------------------------------------------------------------------------
                       ORCA ELECTRIC PROPERTIES CALCULATION
------------------------------------------------------------------------------

Dipole Moment Calculation                       ... on
Quadrupole Moment Calculation                   ... off
Polarizability Calculation                      ... Analytic (CP-SCF)
GBWName                                         ... piridine_efield_y_-0.008.gbw
Electron density                                ... piridine_efield_y_-0.008.scfp
The origin for moment calculation is the CENTER OF MASS  = (-0.340579,  0.682087  0.420996)

-------------
DIPOLE MOMENT
-------------
                                X             Y             Z
Electronic contribution:     -0.00000      -0.64106       1.47631
Nuclear contribution   :      0.00000      -0.00000      -1.88024
                        -----------------------------------------
Total Dipole Moment    :     -0.00000      -0.64106      -0.40393
                        -----------------------------------------
Magnitude (a.u.)       :      0.75771
Magnitude (Debye)      :      1.92594



--------------------
Rotational spectrum 
--------------------
 
Rotational constants in cm-1:     0.229528     0.201222     0.107222 
Rotational constants in MHz :  6881.073070  6032.486698  3214.449192 

 Dipole components along the rotational axes: 
x,y,z [a.u.] :    -0.641060    -0.403931     0.000000 
x,y,z [Debye]:    -1.629445    -1.026711     0.000000 

 
Transforming and storing MO dipole integrals   ... done

                ... starting polarizability calculation

The origin for moment calculation is the CENTER OF MASS  = (-0.340579,  0.682087  0.420996)
Opening the Dipole integral file               ... (piridine_efield_y_-0.008.dmo.tmp) done
Reading Dipole-MO integrals                    ... done
Solving CP-SCF equations                       ... 

           ************************************************************
           *        Program running with 16 parallel MPI-processes    *
           *              working on a common directory               *
           ************************************************************

------------------------------------------------------------------------------
                           ORCA CP-SCF CALCULATION
------------------------------------------------------------------------------

Input orbitals are from        ... piridine_efield_y_-0.008.gbw
Input Perturbation             ... piridine_efield_y_-0.008.cpv.tmp
Wavefunction output            ... piridine_efield_y_-0.008.cpu.tmp
Perturbation mode              ... Real perturbation (singlet)
Solver                         ... POPLE
Max. number of iterations      ... 64
Convergence tolerance          ... 3.000e-05
Integral handling              ... Direct
Number of perturbations        ... 3
Number of operators            ... 1
Orbital ranges used for CP-SCF:
 Operator 0:  Orbitals   0... 20  to  21...182
Variables per perturbation     ... 3402
Memory available               ... 1993.8 MB
Memory needed per perturbation ...   1.0 MB
Perturbations treated per batch... 3
Number of batches              ... 1
     CP-SCF ITERATION   0:   2.0974e+00 (   1.2 sec   0/  3 done)
     CP-SCF ITERATION   1:   4.2291e-01 (   1.2 sec   0/  3 done)
     CP-SCF ITERATION   2:   1.2324e-01 (   1.2 sec   0/  3 done)
     CP-SCF ITERATION   3:   5.4336e-02 (   1.2 sec   0/  3 done)
     CP-SCF ITERATION   4:   2.1448e-02 (   1.2 sec   0/  3 done)
     CP-SCF ITERATION   5:   9.7230e-03 (   1.1 sec   0/  3 done)
     CP-SCF ITERATION   6:   2.8189e-03 (   1.1 sec   0/  3 done)
     CP-SCF ITERATION   7:   6.7553e-04 (   1.1 sec   0/  3 done)
     CP-SCF ITERATION   8:   3.0626e-04 (   1.1 sec   1/  3 done)
     CP-SCF ITERATION   9:   7.0131e-05 (   1.0 sec   1/  3 done)
     CP-SCF ITERATION  10:   2.1723e-05 (   1.0 sec   3/  3 done)
                    *** THE CP-SCF HAS CONVERGED ***
done
Reading CP-SCF coefficients                    ... done
Doing the polarizability tensor                ... done
Cleaning up                                    ... done

-------------------------
THE POLARIZABILITY TENSOR
-------------------------

The raw cartesian tensor (atomic units):
   39.97504     -0.00000      0.00000  
   -0.00000     80.67773      0.26220  
    0.00000      0.26220     65.91347  
diagonalized tensor: 
   39.97504     65.90881     80.68238  

    1.00000     -0.00000     -0.00000  
    0.00000      0.01775      0.99984  
   -0.00000     -0.99984      0.01775  

Isotropic polarizability :  62.18875


Timings for individual modules:

Sum of individual times         ...       30.772 sec (=   0.513 min)
GTO integral calculation        ...        2.835 sec (=   0.047 min)   9.2 %
SCF iterations                  ...       12.683 sec (=   0.211 min)  41.2 %
Solution of CP-SCF eqns.        ...       15.254 sec (=   0.254 min)  49.6 %
                             ****ORCA TERMINATED NORMALLY****
TOTAL RUN TIME: 0 days 0 hours 0 minutes 33 seconds 811 msec
