
                                 *****************
                                 * O   R   C   A *
                                 *****************

                                            #,                                       
                                            ###                                      
                                            ####                                     
                                            #####                                    
                                            ######                                   
                                           ########,                                 
                                     ,,################,,,,,                         
                               ,,#################################,,                 
                          ,,##########################################,,             
                       ,#########################################, ''#####,          
                    ,#############################################,,   '####,        
                  ,##################################################,,,,####,       
                ,###########''''           ''''###############################       
              ,#####''   ,,,,##########,,,,          '''####'''          '####       
            ,##' ,,,,###########################,,,                        '##       
           ' ,,###''''                  '''############,,,                           
         ,,##''                                '''############,,,,        ,,,,,,###''
      ,#''                                            '''#######################'''  
     '                                                          ''''####''''         
             ,#######,   #######,   ,#######,      ##                                
            ,#'     '#,  ##    ##  ,#'     '#,    #''#        ######   ,####,        
            ##       ##  ##   ,#'  ##            #'  '#       #        #'  '#        
            ##       ##  #######   ##           ,######,      #####,   #    #        
            '#,     ,#'  ##    ##  '#,     ,#' ,#      #,         ##   #,  ,#        
             '#######'   ##     ##  '#######'  #'      '#     #####' # '####'        



                  #######################################################
                  #                        -***-                        #
                  #          Department of theory and spectroscopy      #
                  #    Directorship and core code : Frank Neese         #
                  #        Max Planck Institute fuer Kohlenforschung    #
                  #                Kaiser Wilhelm Platz 1               #
                  #                 D-45470 Muelheim/Ruhr               #
                  #                      Germany                        #
                  #                                                     #
                  #                  All rights reserved                #
                  #                        -***-                        #
                  #######################################################


                         Program Version 5.0.4 -  RELEASE  -


 With contributions from (in alphabetic order):
   Daniel Aravena         : Magnetic Suceptibility
   Michael Atanasov       : Ab Initio Ligand Field Theory (pilot matlab implementation)
   Alexander A. Auer      : GIAO ZORA, VPT2 properties, NMR spectrum
   Ute Becker             : Parallelization
   Giovanni Bistoni       : ED, misc. LED, open-shell LED, HFLD
   Martin Brehm           : Molecular dynamics
   Dmytro Bykov           : SCF Hessian
   Vijay G. Chilkuri      : MRCI spin determinant printing, contributions to CSF-ICE
   Dipayan Datta          : RHF DLPNO-CCSD density
   Achintya Kumar Dutta   : EOM-CC, STEOM-CC
   Dmitry Ganyushin       : Spin-Orbit,Spin-Spin,Magnetic field MRCI
   Miquel Garcia          : C-PCM and meta-GGA Hessian, CC/C-PCM, Gaussian charge scheme
   Yang Guo               : DLPNO-NEVPT2, F12-NEVPT2, CIM, IAO-localization
   Andreas Hansen         : Spin unrestricted coupled pair/coupled cluster methods
   Benjamin Helmich-Paris : MC-RPA, TRAH-SCF, COSX integrals
   Lee Huntington         : MR-EOM, pCC
   Robert Izsak           : Overlap fitted RIJCOSX, COSX-SCS-MP3, EOM
   Marcus Kettner         : VPT2
   Christian Kollmar      : KDIIS, OOCD, Brueckner-CCSD(T), CCSD density, CASPT2, CASPT2-K
   Simone Kossmann        : Meta GGA functionals, TD-DFT gradient, OOMP2, MP2 Hessian
   Martin Krupicka        : Initial AUTO-CI
   Lucas Lang             : DCDCAS
   Marvin Lechner         : AUTO-CI (C++ implementation), FIC-MRCC
   Dagmar Lenk            : GEPOL surface, SMD
   Dimitrios Liakos       : Extrapolation schemes; Compound Job, initial MDCI parallelization
   Dimitrios Manganas     : Further ROCIS development; embedding schemes
   Dimitrios Pantazis     : SARC Basis sets
   Anastasios Papadopoulos: AUTO-CI, single reference methods and gradients
   Taras Petrenko         : DFT Hessian,TD-DFT gradient, ASA, ECA, R-Raman, ABS, FL, XAS/XES, NRVS
   Peter Pinski           : DLPNO-MP2, DLPNO-MP2 Gradient
   Christoph Reimann      : Effective Core Potentials
   Marius Retegan         : Local ZFS, SOC
   Christoph Riplinger    : Optimizer, TS searches, QM/MM, DLPNO-CCSD(T), (RO)-DLPNO pert. Triples
   Tobias Risthaus        : Range-separated hybrids, TD-DFT gradient, RPA, STAB
   Michael Roemelt        : Original ROCIS implementation
   Masaaki Saitow         : Open-shell DLPNO-CCSD energy and density
   Barbara Sandhoefer     : DKH picture change effects
   Avijit Sen             : IP-ROCIS
   Kantharuban Sivalingam : CASSCF convergence, NEVPT2, FIC-MRCI
   Bernardo de Souza      : ESD, SOC TD-DFT
   Georgi Stoychev        : AutoAux, RI-MP2 NMR, DLPNO-MP2 response
   Willem Van den Heuvel  : Paramagnetic NMR
   Boris Wezisla          : Elementary symmetry handling
   Frank Wennmohs         : Technical directorship


 We gratefully acknowledge several colleagues who have allowed us to
 interface, adapt or use parts of their codes:
   Stefan Grimme, W. Hujo, H. Kruse, P. Pracht,  : VdW corrections, initial TS optimization,
                  C. Bannwarth, S. Ehlert          DFT functionals, gCP, sTDA/sTD-DF
   Ed Valeev, F. Pavosevic, A. Kumar             : LibInt (2-el integral package), F12 methods
   Garnet Chan, S. Sharma, J. Yang, R. Olivares  : DMRG
   Ulf Ekstrom                                   : XCFun DFT Library
   Mihaly Kallay                                 : mrcc  (arbitrary order and MRCC methods)
   Jiri Pittner, Ondrej Demel                    : Mk-CCSD
   Frank Weinhold                                : gennbo (NPA and NBO analysis)
   Christopher J. Cramer and Donald G. Truhlar   : smd solvation model
   Lars Goerigk                                  : TD-DFT with DH, B97 family of functionals
   V. Asgeirsson, H. Jonsson                     : NEB implementation
   FAccTs GmbH                                   : IRC, NEB, NEB-TS, DLPNO-Multilevel, CI-OPT
                                                   MM, QMMM, 2- and 3-layer-ONIOM, Crystal-QMMM,
                                                   LR-CPCM, SF, NACMEs, symmetry and pop. for TD-DFT,
                                                   nearIR, NL-DFT gradient (VV10), updates on ESD,
                                                   ML-optimized integration grids
   S Lehtola, MJT Oliveira, MAL Marques          : LibXC Library
   Liviu Ungur et al                             : ANISO software


 Your calculation uses the libint2 library for the computation of 2-el integrals
 For citations please refer to: http://libint.valeyev.net

 Your ORCA version has been built with support for libXC version: 5.1.0
 For citations please refer to: https://tddft.org/programs/libxc/

 This ORCA versions uses:
   CBLAS   interface :  Fast vector & matrix operations
   LAPACKE interface :  Fast linear algebra routines
   SCALAPACK package :  Parallel linear algebra routines
   Shared memory     :  Shared parallel matrices
   BLAS/LAPACK       :  OpenBLAS 0.3.15  USE64BITINT DYNAMIC_ARCH NO_AFFINITY SkylakeX SINGLE_THREADED
        Core in use  :  SkylakeX
   Copyright (c) 2011-2014, The OpenBLAS Project


================================================================================

----- Orbital basis set information -----
Your calculation utilizes the basis: aug-cc-pVDZ 
    H, B-Ne : Obtained from the ccRepo (grant-hill.group.shef.ac.uk/ccrepo) Feb. 2017
              R. A. Kendall, T. H. Dunning, Jr., R. J. Harrison, J. Chem. Phys. 96, 6796 (1992)
         He : Obtained from the ccRepo (grant-hill.group.shef.ac.uk/ccrepo) Feb. 2017
              D. E. Woon, T. H. Dunning, Jr., J. Chem. Phys. 100, 2975 (1994)
  Li-Be, Na : Obtained from the ccRepo (grant-hill.group.shef.ac.uk/ccrepo) Feb. 2017
              B. P. Prascher, D. E. Woon, K. A. Peterson, T. H. Dunning, Jr., A. K. Wilson, Theor. Chem. Acc. 128, 69 (2011)
         Mg : Obtained from the Peterson Research Group Website (tyr0.chem.wsu.edu/~kipeters) Feb. 2017
              B. P. Prascher, D. E. Woon, K. A. Peterson, T. H. Dunning, Jr., A. K. Wilson, Theor. Chem. Acc. 128, 69 (2011)
      Al-Ar : Obtained from the ccRepo (grant-hill.group.shef.ac.uk/ccrepo) Feb. 2017
              D. E. Woon, T. H. Dunning, Jr., J. Chem. Phys. 98, 1358 (1993)
      Sc-Zn : Obtained from the ccRepo (grant-hill.group.shef.ac.uk/ccrepo) Feb. 2017
              N. B. Balabanov, K. A. Peterson, J. Chem. Phys. 123, 064107 (2005)
              N. B. Balabanov, K. A. Peterson, J. Chem. Phys. 125, 074110 (2006)
      Ga-Kr : Obtained from the ccRepo (grant-hill.group.shef.ac.uk/ccrepo) Feb. 2017
              A. K. Wilson, D. E. Woon, K. A. Peterson, T. H. Dunning, Jr., J. Chem. Phys. 110, 7667 (1999)

================================================================================
                                        WARNINGS
                       Please study these warnings very carefully!
================================================================================


INFO   : the flag for use of the SHARK integral package has been found!

================================================================================
                                       INPUT FILE
================================================================================
NAME = piridine_efield_x_-0.032.inp
|  1> ! hf aug-cc-pVDZ
|  2> ! MiniPrint VeryTightSCF
|  3> %pal
|  4>  nprocs 16
|  5> end
|  6> %MaxCore 2000
|  7> %scf
|  8>  maxiter=200
|  9>  efield -0.032 , 0.0 , 0.0
| 10> end
| 11> %elprop
| 12>   polar 1
| 13> end
| 14> * xyz 0 1
| 15> C       -0.180226841      0.360945118     -1.120304970
| 16> C       -0.180226841      1.559292118     -0.407860970
| 17> C       -0.180226841      1.503191118      0.986935030
| 18> N       -0.180226841      0.360945118      1.29018350
| 19> C       -0.180226841     -0.781300882      0.986935030
| 20> C       -0.180226841     -0.837401882     -0.407860970
| 21> H       -0.180226841      0.360945118     -2.206546970
| 22> H       -0.180226841      2.517950118     -0.917077970
| 23> H       -0.180226841      2.421289118      1.572099030
| 24> H       -0.180226841     -1.699398882      1.572099030
| 25> H       -0.180226841     -1.796059882     -0.917077970
| 26> *
| 27> 
| 28>                          ****END OF INPUT****
================================================================================

                       ****************************
                       * Single Point Calculation *
                       ****************************

---------------------------------
CARTESIAN COORDINATES (ANGSTROEM)
---------------------------------
  C     -0.180227    0.360945   -1.120305
  C     -0.180227    1.559292   -0.407861
  C     -0.180227    1.503191    0.986935
  N     -0.180227    0.360945    1.290183
  C     -0.180227   -0.781301    0.986935
  C     -0.180227   -0.837402   -0.407861
  H     -0.180227    0.360945   -2.206547
  H     -0.180227    2.517950   -0.917078
  H     -0.180227    2.421289    1.572099
  H     -0.180227   -1.699399    1.572099
  H     -0.180227   -1.796060   -0.917078

----------------------------
CARTESIAN COORDINATES (A.U.)
----------------------------
  NO LB      ZA    FRAG     MASS         X           Y           Z
   0 C     6.0000    0    12.011   -0.340579    0.682087   -2.117070
   1 C     6.0000    0    12.011   -0.340579    2.946635   -0.770746
   2 C     6.0000    0    12.011   -0.340579    2.840620    1.865037
   3 N     7.0000    0    14.007   -0.340579    0.682087    2.438093
   4 C     6.0000    0    12.011   -0.340579   -1.476445    1.865037
   5 C     6.0000    0    12.011   -0.340579   -1.582460   -0.770746
   6 H     1.0000    0     1.008   -0.340579    0.682087   -4.169769
   7 H     1.0000    0     1.008   -0.340579    4.758236   -1.733026
   8 H     1.0000    0     1.008   -0.340579    4.575573    2.970837
   9 H     1.0000    0     1.008   -0.340579   -3.211398    2.970837
  10 H     1.0000    0     1.008   -0.340579   -3.394061   -1.733026



           ************************************************************
           *        Program running with 16 parallel MPI-processes    *
           *              working on a common directory               *
           ************************************************************
------------------------------------------------------------------------------
                   ___                                                        
                  /   \      - P O W E R E D   B Y -                         
                 /     \                                                     
                 |  |  |   _    _      __       _____    __    __             
                 |  |  |  | |  | |    /  \     |  _  \  |  |  /  |          
                  \  \/   | |  | |   /    \    | | | |  |  | /  /          
                 / \  \   | |__| |  /  /\  \   | |_| |  |  |/  /          
                |  |  |   |  __  | /  /__\  \  |    /   |      \           
                |  |  |   | |  | | |   __   |  |    \   |  |\   \          
                \     /   | |  | | |  |  |  |  | |\  \  |  | \   \       
                 \___/    |_|  |_| |__|  |__|  |_| \__\ |__|  \__/        
                                                                              
                      - O R C A' S   B I G   F R I E N D -                    
                                      &                                       
                       - I N T E G R A L  F E E D E R -                       
                                                                              
 v1 FN, 2020, v2 2021                                                         
------------------------------------------------------------------------------


Reading SHARK input file piridine_efield_x_-0.032.SHARKINP.tmp ... ok
----------------------
SHARK INTEGRAL PACKAGE
----------------------

Number of atoms                             ...     11
Number of basis functions                   ...    219
Number of shells                            ...    115
Maximum angular momentum                    ...      2
Integral batch strategy                     ... SHARK/LIBINT Hybrid
RI-J (if used) integral strategy            ... SPLIT-RIJ (Revised 2003 algorithm where possible)
Printlevel                                  ...      1
Contraction scheme used                     ... PARTIAL GENERAL contraction
Coulomb Range Separation                    ... NOT USED
Exchange Range Separation                   ... NOT USED
Finite Nucleus Model                        ... NOT USED
Auxiliary Coulomb fitting basis             ... NOT available
Auxiliary J/K fitting basis                 ... NOT available
Auxiliary Correlation fitting basis         ... NOT available
Auxiliary 'external' fitting basis          ... NOT available
Integral threshold                          ...     1.000000e-12
Primitive cut-off                           ...     1.000000e-14
Primitive pair pre-selection threshold      ...     1.000000e-14

Calculating pre-screening integrals         ... done (  0.0 sec) Dimension = 115
Calculating pre-screening integrals (ORCA)  ... done (  0.1 sec) Dimension = 79
Organizing shell pair data                  ... done (  0.0 sec)
Shell pair information
Total number of shell pairs                 ...      6670
Shell pairs after pre-screening             ...      6002
Total number of primitive shell pairs       ...      9486
Primitive shell pairs kept                  ...      8107
          la=0 lb=0:   2207 shell pairs
          la=1 lb=0:   2075 shell pairs
          la=1 lb=1:    406 shell pairs
          la=2 lb=0:    900 shell pairs
          la=2 lb=1:    336 shell pairs
          la=2 lb=2:     78 shell pairs

Calculating one electron integrals          ... done (  0.0 sec)
Calculating Nuclear repulsion               ... done (  0.0 sec) ENN=    214.850568283403 Eh

SHARK setup successfully completed in   0.2 seconds

Maximum memory used throughout the entire GTOINT-calculation: 15.5 MB

An Electric Field will be added: -3.200e-02 0.000e+00 0.000e+00 au

  ... done adding electric field perturbation



           ************************************************************
           *        Program running with 16 parallel MPI-processes    *
           *              working on a common directory               *
           ************************************************************

Diagonalization of the overlap matrix:
Smallest eigenvalue                        ... 1.248e-05
Time for diagonalization                   ...    0.004 sec
Threshold for overlap eigenvalues          ... 1.000e-08
Number of eigenvalues below threshold      ... 0
Time for construction of square roots      ...    0.012 sec
Total time needed                          ...    0.026 sec

Time for model grid setup =    0.051 sec

Loading Hartree-Fock densities                     ... done
Calculating cut-offs                               ... done
Initializing the effective Hamiltonian             ... done
Setting up the integral package (SHARK)            ... done
Starting the Coulomb interaction                   ... done (   0.0 sec)
Reading the grid                                   ... done
Mapping shells                                     ... done
Starting the XC term evaluation                    ... done (   0.0 sec)
Transforming the Hamiltonian                       ... done (   0.0 sec)
Diagonalizing the Hamiltonian                      ... done (   0.0 sec)
Back transforming the eigenvectors                 ... done (   0.0 sec)
Now organizing SCF variables                       ... done
--------------
SCF ITERATIONS
--------------
ITER       Energy         Delta-E        Max-DP      RMS-DP      [F,P]     Damp
               ***  Starting incremental Fock matrix formation  ***
  0   -246.3604698984   0.000000000000 0.61404187  0.01380924  0.2772785 0.7000
  1   -246.4575209542  -0.097051055807 0.46554829  0.01031055  0.1749846 0.7000
                               ***Turning on DIIS***
  2   -246.5150984561  -0.057577501878 0.33072352  0.00719076  0.1015617 0.7000
  3   -247.2030634359  -0.687964979784 0.77987389  0.01648708  0.0594916 0.0000
  4   -246.5427027324   0.660360703449 0.02171460  0.00061854  0.0082758 0.0000
                      *** Initiating the SOSCF procedure ***
                           *** Shutting down DIIS ***
                      *** Re-Reading the Fockian *** 
                      *** Removing any level shift *** 
ITER      Energy       Delta-E        Grad      Rot      Max-DP    RMS-DP
  5   -246.62824140  -0.0855386696  0.001566  0.001566  0.013699  0.000405
               *** Restarting incremental Fock matrix formation ***
  6   -246.63301013  -0.0047687230  0.000579  0.001869  0.010913  0.000318
  7   -246.63303538  -0.0000252594  0.000269  0.001944  0.010287  0.000298
  8   -246.63304348  -0.0000080906  0.000098  0.000213  0.001572  0.000033
  9   -246.63304420  -0.0000007244  0.000089  0.000240  0.000633  0.000022
 10   -246.63304442  -0.0000002231  0.000021  0.000097  0.000208  0.000008
 11   -246.63304445  -0.0000000316  0.000008  0.000017  0.000149  0.000003
 12   -246.63304446  -0.0000000037  0.000003  0.000012  0.000096  0.000002
 13   -246.63304446  -0.0000000005  0.000001  0.000006  0.000035  0.000001
                  ***Gradient check signals convergence***
              ***Rediagonalizing the Fockian in SOSCF/NRSCF***

               *****************************************************
               *                     SUCCESS                       *
               *           SCF CONVERGED AFTER  14 CYCLES          *
               *****************************************************

Total Energy       :         -246.63304446 Eh           -6711.22633 eV
  Last Energy change         ...   -8.8676e-12  Tolerance :   1.0000e-09
  Last MAX-Density change    ...    1.0118e-05  Tolerance :   1.0000e-08
             **** THE GBW FILE WAS UPDATED (piridine_efield_x_-0.032.gbw) ****
             **** DENSITY piridine_efield_x_-0.032.scfp WAS UPDATED ****
             **** ENERGY FILE WAS UPDATED (piridine_efield_x_-0.032.en.tmp) ****
             **** THE GBW FILE WAS UPDATED (piridine_efield_x_-0.032.gbw) ****
             **** DENSITY piridine_efield_x_-0.032.scfp WAS UPDATED ****
----------------
ORBITAL ENERGIES
----------------

  NO   OCC          E(Eh)            E(eV) 
   0   2.0000     -15.534320      -422.7103 
   1   2.0000     -11.275999      -306.8355 
   2   2.0000     -11.275960      -306.8345 
   3   2.0000     -11.256031      -306.2922 
   4   2.0000     -11.248256      -306.0806 
   5   2.0000     -11.248156      -306.0779 
   6   2.0000      -1.347357       -36.6634 
   7   2.0000      -1.087617       -29.5956 
   8   2.0000      -1.081055       -29.4170 
   9   2.0000      -0.889557       -24.2061 
  10   2.0000      -0.847628       -23.0651 
  11   2.0000      -0.749174       -20.3861 
  12   2.0000      -0.706005       -19.2114 
  13   2.0000      -0.649948       -17.6860 
  14   2.0000      -0.606564       -16.5054 
  15   2.0000      -0.597143       -16.2491 
  16   2.0000      -0.578535       -15.7428 
  17   2.0000      -0.538378       -14.6500 
  18   2.0000      -0.389340       -10.5945 
  19   2.0000      -0.352554        -9.5935 
  20   2.0000      -0.335064        -9.1175 
  21   0.0000      -0.072157        -1.9635 
  22   0.0000      -0.023622        -0.6428 
  23   0.0000      -0.021125        -0.5749 
  24   0.0000       0.007823         0.2129 
  25   0.0000       0.014414         0.3922 
  26   0.0000       0.069871         1.9013 
  27   0.0000       0.089071         2.4238 
  28   0.0000       0.089412         2.4330 
  29   0.0000       0.104312         2.8385 
  30   0.0000       0.109333         2.9751 
  31   0.0000       0.128917         3.5080 
  32   0.0000       0.134129         3.6498 
  33   0.0000       0.147764         4.0209 
  34   0.0000       0.149227         4.0607 
  35   0.0000       0.153699         4.1824 
  36   0.0000       0.155496         4.2312 
  37   0.0000       0.171345         4.6625 
  38   0.0000       0.183774         5.0007 
  39   0.0000       0.197954         5.3866 
  40   0.0000       0.199750         5.4355 
  41   0.0000       0.205182         5.5833 
  42   0.0000       0.214129         5.8267 
  43   0.0000       0.246640         6.7114 
  44   0.0000       0.263727         7.1764 
  45   0.0000       0.283962         7.7270 
  46   0.0000       0.284782         7.7493 
  47   0.0000       0.293995         8.0000 
  48   0.0000       0.314416         8.5557 
  49   0.0000       0.316192         8.6040 
  50   0.0000       0.329811         8.9746 
  51   0.0000       0.334002         9.0886 
  52   0.0000       0.351922         9.5763 
  53   0.0000       0.362040         9.8516 
  54   0.0000       0.374587        10.1930 
  55   0.0000       0.377713        10.2781 
  56   0.0000       0.382513        10.4087 
  57   0.0000       0.385287        10.4842 
  58   0.0000       0.410159        11.1610 
  59   0.0000       0.423020        11.5110 
  60   0.0000       0.430703        11.7200 
  61   0.0000       0.431173        11.7328 
  62   0.0000       0.441464        12.0129 
  63   0.0000       0.460022        12.5178 
  64   0.0000       0.472970        12.8702 
  65   0.0000       0.499768        13.5994 
  66   0.0000       0.531991        14.4762 
  67   0.0000       0.543519        14.7899 
  68   0.0000       0.553032        15.0488 
  69   0.0000       0.563043        15.3212 
  70   0.0000       0.573054        15.5936 
  71   0.0000       0.574813        15.6415 
  72   0.0000       0.595417        16.2021 
  73   0.0000       0.606114        16.4932 
  74   0.0000       0.613632        16.6978 
  75   0.0000       0.621212        16.9040 
  76   0.0000       0.648439        17.6449 
  77   0.0000       0.660087        17.9619 
  78   0.0000       0.669059        18.2060 
  79   0.0000       0.672870        18.3097 
  80   0.0000       0.673555        18.3284 
  81   0.0000       0.689016        18.7491 
  82   0.0000       0.693970        18.8839 
  83   0.0000       0.694050        18.8861 
  84   0.0000       0.710108        19.3230 
  85   0.0000       0.726896        19.7798 
  86   0.0000       0.727126        19.7861 
  87   0.0000       0.730459        19.8768 
  88   0.0000       0.754636        20.5347 
  89   0.0000       0.762494        20.7485 
  90   0.0000       0.803610        21.8673 
  91   0.0000       0.813082        22.1251 
  92   0.0000       0.844676        22.9848 
  93   0.0000       0.847917        23.0730 
  94   0.0000       0.863452        23.4957 
  95   0.0000       0.871164        23.7056 
  96   0.0000       0.882836        24.0232 
  97   0.0000       0.903880        24.5958 
  98   0.0000       0.909916        24.7601 
  99   0.0000       0.918639        24.9974 
 100   0.0000       0.938129        25.5278 
 101   0.0000       0.964623        26.2487 
 102   0.0000       0.980209        26.6728 
 103   0.0000       1.003544        27.3078 
 104   0.0000       1.015857        27.6429 
 105   0.0000       1.042224        28.3604 
 106   0.0000       1.084560        29.5124 
 107   0.0000       1.103054        30.0156 
 108   0.0000       1.107710        30.1423 
 109   0.0000       1.116486        30.3811 
 110   0.0000       1.131868        30.7997 
 111   0.0000       1.148042        31.2398 
 112   0.0000       1.178493        32.0684 
 113   0.0000       1.242491        33.8099 
 114   0.0000       1.341933        36.5158 
 115   0.0000       1.358882        36.9771 
 116   0.0000       1.368495        37.2386 
 117   0.0000       1.397712        38.0337 
 118   0.0000       1.400220        38.1019 
 119   0.0000       1.467020        39.9197 
 120   0.0000       1.504432        40.9377 
 121   0.0000       1.508654        41.0525 
 122   0.0000       1.518688        41.3256 
 123   0.0000       1.521082        41.3908 
 124   0.0000       1.593158        43.3520 
 125   0.0000       1.597784        43.4779 
 126   0.0000       1.608045        43.7571 
 127   0.0000       1.626913        44.2706 
 128   0.0000       1.659892        45.1680 
 129   0.0000       1.686140        45.8822 
 130   0.0000       1.687072        45.9076 
 131   0.0000       1.692090        46.0441 
 132   0.0000       1.711219        46.5646 
 133   0.0000       1.744301        47.4649 
 134   0.0000       1.810691        49.2714 
 135   0.0000       1.816172        49.4205 
 136   0.0000       1.844200        50.1832 
 137   0.0000       1.852200        50.4009 
 138   0.0000       1.889971        51.4287 
 139   0.0000       1.910909        51.9985 
 140   0.0000       1.943453        52.8840 
 141   0.0000       1.959327        53.3160 
 142   0.0000       1.996074        54.3159 
 143   0.0000       2.013339        54.7857 
 144   0.0000       2.060297        56.0635 
 145   0.0000       2.105975        57.3065 
 146   0.0000       2.116009        57.5795 
 147   0.0000       2.143771        58.3350 
 148   0.0000       2.157592        58.7111 
 149   0.0000       2.163522        58.8724 
 150   0.0000       2.220768        60.4302 
 151   0.0000       2.245889        61.1137 
 152   0.0000       2.248129        61.1747 
 153   0.0000       2.277599        61.9766 
 154   0.0000       2.321069        63.1595 
 155   0.0000       2.336526        63.5801 
 156   0.0000       2.342114        63.7322 
 157   0.0000       2.358520        64.1786 
 158   0.0000       2.415143        65.7194 
 159   0.0000       2.435066        66.2615 
 160   0.0000       2.464222        67.0549 
 161   0.0000       2.515635        68.4539 
 162   0.0000       2.554746        69.5182 
 163   0.0000       2.586468        70.3814 
 164   0.0000       2.635187        71.7071 
 165   0.0000       2.748129        74.7804 
 166   0.0000       2.820287        76.7439 
 167   0.0000       2.833292        77.0978 
 168   0.0000       2.842091        77.3372 
 169   0.0000       2.909924        79.1831 
 170   0.0000       2.932266        79.7910 
 171   0.0000       2.949252        80.2532 
 172   0.0000       2.980703        81.1091 
 173   0.0000       3.100297        84.3634 
 174   0.0000       3.135478        85.3207 
 175   0.0000       3.191889        86.8557 
 176   0.0000       3.305268        89.9409 
 177   0.0000       3.451917        93.9314 
 178   0.0000       3.500709        95.2591 
 179   0.0000       3.605263        98.1042 
 180   0.0000       3.941506       107.2538 
 181   0.0000       3.961731       107.8042 
 182   0.0000       4.501279       122.4860 
Total SCF time: 0 days 0 hours 0 min 9 sec 

Maximum memory used throughout the entire SCF-calculation: 229.7 MB

-------------------------   --------------------
FINAL SINGLE POINT ENERGY      -246.633044458389
-------------------------   --------------------


                            ***************************************
                            *     ORCA property calculations      *
                            ***************************************

                                    ---------------------
                                    Active property flags
                                    ---------------------
   (+) Dipole Moment
   (+) Polarizability


------------------------------------------------------------------------------
                       ORCA ELECTRIC PROPERTIES CALCULATION
------------------------------------------------------------------------------

Dipole Moment Calculation                       ... on
Quadrupole Moment Calculation                   ... off
Polarizability Calculation                      ... Analytic (CP-SCF)
GBWName                                         ... piridine_efield_x_-0.032.gbw
Electron density                                ... piridine_efield_x_-0.032.scfp
The origin for moment calculation is the CENTER OF MASS  = (-0.340579,  0.682087  0.420996)

-------------
DIPOLE MOMENT
-------------
                                X             Y             Z
Electronic contribution:     -1.33829      -0.00000       1.49400
Nuclear contribution   :      0.00000      -0.00000      -1.88024
                        -----------------------------------------
Total Dipole Moment    :     -1.33829      -0.00000      -0.38625
                        -----------------------------------------
Magnitude (a.u.)       :      1.39291
Magnitude (Debye)      :      3.54051



--------------------
Rotational spectrum 
--------------------
 
Rotational constants in cm-1:     0.229528     0.201222     0.107222 
Rotational constants in MHz :  6881.073070  6032.486698  3214.449192 

 Dipole components along the rotational axes: 
x,y,z [a.u.] :    -0.000000    -0.386246     1.338291 
x,y,z [Debye]:    -0.000000    -0.981760     3.401666 

 
Transforming and storing MO dipole integrals   ... done

                ... starting polarizability calculation

The origin for moment calculation is the CENTER OF MASS  = (-0.340579,  0.682087  0.420996)
Opening the Dipole integral file               ... (piridine_efield_x_-0.032.dmo.tmp) done
Reading Dipole-MO integrals                    ... done
Solving CP-SCF equations                       ... 

           ************************************************************
           *        Program running with 16 parallel MPI-processes    *
           *              working on a common directory               *
           ************************************************************

------------------------------------------------------------------------------
                           ORCA CP-SCF CALCULATION
------------------------------------------------------------------------------

Input orbitals are from        ... piridine_efield_x_-0.032.gbw
Input Perturbation             ... piridine_efield_x_-0.032.cpv.tmp
Wavefunction output            ... piridine_efield_x_-0.032.cpu.tmp
Perturbation mode              ... Real perturbation (singlet)
Solver                         ... POPLE
Max. number of iterations      ... 64
Convergence tolerance          ... 3.000e-05
Integral handling              ... Direct
Number of perturbations        ... 3
Number of operators            ... 1
Orbital ranges used for CP-SCF:
 Operator 0:  Orbitals   0... 20  to  21...182
Variables per perturbation     ... 3402
Memory available               ... 1993.8 MB
Memory needed per perturbation ...   1.0 MB
Perturbations treated per batch... 3
Number of batches              ... 1
     CP-SCF ITERATION   0:   2.1802e+00 (   1.1 sec   0/  3 done)
     CP-SCF ITERATION   1:   4.9682e-01 (   1.2 sec   0/  3 done)
     CP-SCF ITERATION   2:   1.2806e-01 (   1.2 sec   0/  3 done)
     CP-SCF ITERATION   3:   5.6190e-02 (   1.2 sec   0/  3 done)
     CP-SCF ITERATION   4:   2.2268e-02 (   1.2 sec   0/  3 done)
     CP-SCF ITERATION   5:   1.0060e-02 (   1.2 sec   0/  3 done)
     CP-SCF ITERATION   6:   3.0285e-03 (   1.2 sec   0/  3 done)
     CP-SCF ITERATION   7:   8.5585e-04 (   1.2 sec   0/  3 done)
     CP-SCF ITERATION   8:   2.9792e-04 (   1.2 sec   0/  3 done)
     CP-SCF ITERATION   9:   1.0421e-04 (   1.2 sec   1/  3 done)
     CP-SCF ITERATION  10:   3.2997e-05 (   1.0 sec   2/  3 done)
     CP-SCF ITERATION  11:   8.9116e-06 (   0.8 sec   3/  3 done)
                    *** THE CP-SCF HAS CONVERGED ***
done
Reading CP-SCF coefficients                    ... done
Doing the polarizability tensor                ... done
Cleaning up                                    ... done

-------------------------
THE POLARIZABILITY TENSOR
-------------------------

The raw cartesian tensor (atomic units):
   46.73386      0.00000     -1.34037  
    0.00000     83.78071     -0.00000  
   -1.34037     -0.00000     67.73684  
diagonalized tensor: 
   46.64867     67.82203     83.78071  

    0.99799     -0.06343      0.00000  
   -0.00000      0.00000      1.00000  
    0.06343      0.99799     -0.00000  

Isotropic polarizability :  66.08380


Timings for individual modules:

Sum of individual times         ...       31.543 sec (=   0.526 min)
GTO integral calculation        ...        2.819 sec (=   0.047 min)   8.9 %
SCF iterations                  ...       12.586 sec (=   0.210 min)  39.9 %
Solution of CP-SCF eqns.        ...       16.138 sec (=   0.269 min)  51.2 %
                             ****ORCA TERMINATED NORMALLY****
TOTAL RUN TIME: 0 days 0 hours 0 minutes 34 seconds 633 msec
