
                                 *****************
                                 * O   R   C   A *
                                 *****************

                                            #,                                       
                                            ###                                      
                                            ####                                     
                                            #####                                    
                                            ######                                   
                                           ########,                                 
                                     ,,################,,,,,                         
                               ,,#################################,,                 
                          ,,##########################################,,             
                       ,#########################################, ''#####,          
                    ,#############################################,,   '####,        
                  ,##################################################,,,,####,       
                ,###########''''           ''''###############################       
              ,#####''   ,,,,##########,,,,          '''####'''          '####       
            ,##' ,,,,###########################,,,                        '##       
           ' ,,###''''                  '''############,,,                           
         ,,##''                                '''############,,,,        ,,,,,,###''
      ,#''                                            '''#######################'''  
     '                                                          ''''####''''         
             ,#######,   #######,   ,#######,      ##                                
            ,#'     '#,  ##    ##  ,#'     '#,    #''#        ######   ,####,        
            ##       ##  ##   ,#'  ##            #'  '#       #        #'  '#        
            ##       ##  #######   ##           ,######,      #####,   #    #        
            '#,     ,#'  ##    ##  '#,     ,#' ,#      #,         ##   #,  ,#        
             '#######'   ##     ##  '#######'  #'      '#     #####' # '####'        



                  #######################################################
                  #                        -***-                        #
                  #          Department of theory and spectroscopy      #
                  #    Directorship and core code : Frank Neese         #
                  #        Max Planck Institute fuer Kohlenforschung    #
                  #                Kaiser Wilhelm Platz 1               #
                  #                 D-45470 Muelheim/Ruhr               #
                  #                      Germany                        #
                  #                                                     #
                  #                  All rights reserved                #
                  #                        -***-                        #
                  #######################################################


                         Program Version 5.0.4 -  RELEASE  -


 With contributions from (in alphabetic order):
   Daniel Aravena         : Magnetic Suceptibility
   Michael Atanasov       : Ab Initio Ligand Field Theory (pilot matlab implementation)
   Alexander A. Auer      : GIAO ZORA, VPT2 properties, NMR spectrum
   Ute Becker             : Parallelization
   Giovanni Bistoni       : ED, misc. LED, open-shell LED, HFLD
   Martin Brehm           : Molecular dynamics
   Dmytro Bykov           : SCF Hessian
   Vijay G. Chilkuri      : MRCI spin determinant printing, contributions to CSF-ICE
   Dipayan Datta          : RHF DLPNO-CCSD density
   Achintya Kumar Dutta   : EOM-CC, STEOM-CC
   Dmitry Ganyushin       : Spin-Orbit,Spin-Spin,Magnetic field MRCI
   Miquel Garcia          : C-PCM and meta-GGA Hessian, CC/C-PCM, Gaussian charge scheme
   Yang Guo               : DLPNO-NEVPT2, F12-NEVPT2, CIM, IAO-localization
   Andreas Hansen         : Spin unrestricted coupled pair/coupled cluster methods
   Benjamin Helmich-Paris : MC-RPA, TRAH-SCF, COSX integrals
   Lee Huntington         : MR-EOM, pCC
   Robert Izsak           : Overlap fitted RIJCOSX, COSX-SCS-MP3, EOM
   Marcus Kettner         : VPT2
   Christian Kollmar      : KDIIS, OOCD, Brueckner-CCSD(T), CCSD density, CASPT2, CASPT2-K
   Simone Kossmann        : Meta GGA functionals, TD-DFT gradient, OOMP2, MP2 Hessian
   Martin Krupicka        : Initial AUTO-CI
   Lucas Lang             : DCDCAS
   Marvin Lechner         : AUTO-CI (C++ implementation), FIC-MRCC
   Dagmar Lenk            : GEPOL surface, SMD
   Dimitrios Liakos       : Extrapolation schemes; Compound Job, initial MDCI parallelization
   Dimitrios Manganas     : Further ROCIS development; embedding schemes
   Dimitrios Pantazis     : SARC Basis sets
   Anastasios Papadopoulos: AUTO-CI, single reference methods and gradients
   Taras Petrenko         : DFT Hessian,TD-DFT gradient, ASA, ECA, R-Raman, ABS, FL, XAS/XES, NRVS
   Peter Pinski           : DLPNO-MP2, DLPNO-MP2 Gradient
   Christoph Reimann      : Effective Core Potentials
   Marius Retegan         : Local ZFS, SOC
   Christoph Riplinger    : Optimizer, TS searches, QM/MM, DLPNO-CCSD(T), (RO)-DLPNO pert. Triples
   Tobias Risthaus        : Range-separated hybrids, TD-DFT gradient, RPA, STAB
   Michael Roemelt        : Original ROCIS implementation
   Masaaki Saitow         : Open-shell DLPNO-CCSD energy and density
   Barbara Sandhoefer     : DKH picture change effects
   Avijit Sen             : IP-ROCIS
   Kantharuban Sivalingam : CASSCF convergence, NEVPT2, FIC-MRCI
   Bernardo de Souza      : ESD, SOC TD-DFT
   Georgi Stoychev        : AutoAux, RI-MP2 NMR, DLPNO-MP2 response
   Willem Van den Heuvel  : Paramagnetic NMR
   Boris Wezisla          : Elementary symmetry handling
   Frank Wennmohs         : Technical directorship


 We gratefully acknowledge several colleagues who have allowed us to
 interface, adapt or use parts of their codes:
   Stefan Grimme, W. Hujo, H. Kruse, P. Pracht,  : VdW corrections, initial TS optimization,
                  C. Bannwarth, S. Ehlert          DFT functionals, gCP, sTDA/sTD-DF
   Ed Valeev, F. Pavosevic, A. Kumar             : LibInt (2-el integral package), F12 methods
   Garnet Chan, S. Sharma, J. Yang, R. Olivares  : DMRG
   Ulf Ekstrom                                   : XCFun DFT Library
   Mihaly Kallay                                 : mrcc  (arbitrary order and MRCC methods)
   Jiri Pittner, Ondrej Demel                    : Mk-CCSD
   Frank Weinhold                                : gennbo (NPA and NBO analysis)
   Christopher J. Cramer and Donald G. Truhlar   : smd solvation model
   Lars Goerigk                                  : TD-DFT with DH, B97 family of functionals
   V. Asgeirsson, H. Jonsson                     : NEB implementation
   FAccTs GmbH                                   : IRC, NEB, NEB-TS, DLPNO-Multilevel, CI-OPT
                                                   MM, QMMM, 2- and 3-layer-ONIOM, Crystal-QMMM,
                                                   LR-CPCM, SF, NACMEs, symmetry and pop. for TD-DFT,
                                                   nearIR, NL-DFT gradient (VV10), updates on ESD,
                                                   ML-optimized integration grids
   S Lehtola, MJT Oliveira, MAL Marques          : LibXC Library
   Liviu Ungur et al                             : ANISO software


 Your calculation uses the libint2 library for the computation of 2-el integrals
 For citations please refer to: http://libint.valeyev.net

 Your ORCA version has been built with support for libXC version: 5.1.0
 For citations please refer to: https://tddft.org/programs/libxc/

 This ORCA versions uses:
   CBLAS   interface :  Fast vector & matrix operations
   LAPACKE interface :  Fast linear algebra routines
   SCALAPACK package :  Parallel linear algebra routines
   Shared memory     :  Shared parallel matrices
   BLAS/LAPACK       :  OpenBLAS 0.3.15  USE64BITINT DYNAMIC_ARCH NO_AFFINITY SkylakeX SINGLE_THREADED
        Core in use  :  SkylakeX
   Copyright (c) 2011-2014, The OpenBLAS Project


================================================================================

----- Orbital basis set information -----
Your calculation utilizes the basis: aug-cc-pVDZ 
    H, B-Ne : Obtained from the ccRepo (grant-hill.group.shef.ac.uk/ccrepo) Feb. 2017
              R. A. Kendall, T. H. Dunning, Jr., R. J. Harrison, J. Chem. Phys. 96, 6796 (1992)
         He : Obtained from the ccRepo (grant-hill.group.shef.ac.uk/ccrepo) Feb. 2017
              D. E. Woon, T. H. Dunning, Jr., J. Chem. Phys. 100, 2975 (1994)
  Li-Be, Na : Obtained from the ccRepo (grant-hill.group.shef.ac.uk/ccrepo) Feb. 2017
              B. P. Prascher, D. E. Woon, K. A. Peterson, T. H. Dunning, Jr., A. K. Wilson, Theor. Chem. Acc. 128, 69 (2011)
         Mg : Obtained from the Peterson Research Group Website (tyr0.chem.wsu.edu/~kipeters) Feb. 2017
              B. P. Prascher, D. E. Woon, K. A. Peterson, T. H. Dunning, Jr., A. K. Wilson, Theor. Chem. Acc. 128, 69 (2011)
      Al-Ar : Obtained from the ccRepo (grant-hill.group.shef.ac.uk/ccrepo) Feb. 2017
              D. E. Woon, T. H. Dunning, Jr., J. Chem. Phys. 98, 1358 (1993)
      Sc-Zn : Obtained from the ccRepo (grant-hill.group.shef.ac.uk/ccrepo) Feb. 2017
              N. B. Balabanov, K. A. Peterson, J. Chem. Phys. 123, 064107 (2005)
              N. B. Balabanov, K. A. Peterson, J. Chem. Phys. 125, 074110 (2006)
      Ga-Kr : Obtained from the ccRepo (grant-hill.group.shef.ac.uk/ccrepo) Feb. 2017
              A. K. Wilson, D. E. Woon, K. A. Peterson, T. H. Dunning, Jr., J. Chem. Phys. 110, 7667 (1999)

================================================================================
                                        WARNINGS
                       Please study these warnings very carefully!
================================================================================


INFO   : the flag for use of the SHARK integral package has been found!

================================================================================
                                       INPUT FILE
================================================================================
NAME = piridine_efield_x_-0.008.inp
|  1> ! hf aug-cc-pVDZ
|  2> ! MiniPrint VeryTightSCF
|  3> %pal
|  4>  nprocs 16
|  5> end
|  6> %MaxCore 2000
|  7> %scf
|  8>  maxiter=200
|  9>  efield -0.008 , 0.0 , 0.0
| 10> end
| 11> %elprop
| 12>   polar 1
| 13> end
| 14> * xyz 0 1
| 15> C       -0.180226841      0.360945118     -1.120304970
| 16> C       -0.180226841      1.559292118     -0.407860970
| 17> C       -0.180226841      1.503191118      0.986935030
| 18> N       -0.180226841      0.360945118      1.29018350
| 19> C       -0.180226841     -0.781300882      0.986935030
| 20> C       -0.180226841     -0.837401882     -0.407860970
| 21> H       -0.180226841      0.360945118     -2.206546970
| 22> H       -0.180226841      2.517950118     -0.917077970
| 23> H       -0.180226841      2.421289118      1.572099030
| 24> H       -0.180226841     -1.699398882      1.572099030
| 25> H       -0.180226841     -1.796059882     -0.917077970
| 26> *
| 27> 
| 28>                          ****END OF INPUT****
================================================================================

                       ****************************
                       * Single Point Calculation *
                       ****************************

---------------------------------
CARTESIAN COORDINATES (ANGSTROEM)
---------------------------------
  C     -0.180227    0.360945   -1.120305
  C     -0.180227    1.559292   -0.407861
  C     -0.180227    1.503191    0.986935
  N     -0.180227    0.360945    1.290183
  C     -0.180227   -0.781301    0.986935
  C     -0.180227   -0.837402   -0.407861
  H     -0.180227    0.360945   -2.206547
  H     -0.180227    2.517950   -0.917078
  H     -0.180227    2.421289    1.572099
  H     -0.180227   -1.699399    1.572099
  H     -0.180227   -1.796060   -0.917078

----------------------------
CARTESIAN COORDINATES (A.U.)
----------------------------
  NO LB      ZA    FRAG     MASS         X           Y           Z
   0 C     6.0000    0    12.011   -0.340579    0.682087   -2.117070
   1 C     6.0000    0    12.011   -0.340579    2.946635   -0.770746
   2 C     6.0000    0    12.011   -0.340579    2.840620    1.865037
   3 N     7.0000    0    14.007   -0.340579    0.682087    2.438093
   4 C     6.0000    0    12.011   -0.340579   -1.476445    1.865037
   5 C     6.0000    0    12.011   -0.340579   -1.582460   -0.770746
   6 H     1.0000    0     1.008   -0.340579    0.682087   -4.169769
   7 H     1.0000    0     1.008   -0.340579    4.758236   -1.733026
   8 H     1.0000    0     1.008   -0.340579    4.575573    2.970837
   9 H     1.0000    0     1.008   -0.340579   -3.211398    2.970837
  10 H     1.0000    0     1.008   -0.340579   -3.394061   -1.733026



           ************************************************************
           *        Program running with 16 parallel MPI-processes    *
           *              working on a common directory               *
           ************************************************************
------------------------------------------------------------------------------
                   ___                                                        
                  /   \      - P O W E R E D   B Y -                         
                 /     \                                                     
                 |  |  |   _    _      __       _____    __    __             
                 |  |  |  | |  | |    /  \     |  _  \  |  |  /  |          
                  \  \/   | |  | |   /    \    | | | |  |  | /  /          
                 / \  \   | |__| |  /  /\  \   | |_| |  |  |/  /          
                |  |  |   |  __  | /  /__\  \  |    /   |      \           
                |  |  |   | |  | | |   __   |  |    \   |  |\   \          
                \     /   | |  | | |  |  |  |  | |\  \  |  | \   \       
                 \___/    |_|  |_| |__|  |__|  |_| \__\ |__|  \__/        
                                                                              
                      - O R C A' S   B I G   F R I E N D -                    
                                      &                                       
                       - I N T E G R A L  F E E D E R -                       
                                                                              
 v1 FN, 2020, v2 2021                                                         
------------------------------------------------------------------------------


Reading SHARK input file piridine_efield_x_-0.008.SHARKINP.tmp ... ok
----------------------
SHARK INTEGRAL PACKAGE
----------------------

Number of atoms                             ...     11
Number of basis functions                   ...    219
Number of shells                            ...    115
Maximum angular momentum                    ...      2
Integral batch strategy                     ... SHARK/LIBINT Hybrid
RI-J (if used) integral strategy            ... SPLIT-RIJ (Revised 2003 algorithm where possible)
Printlevel                                  ...      1
Contraction scheme used                     ... PARTIAL GENERAL contraction
Coulomb Range Separation                    ... NOT USED
Exchange Range Separation                   ... NOT USED
Finite Nucleus Model                        ... NOT USED
Auxiliary Coulomb fitting basis             ... NOT available
Auxiliary J/K fitting basis                 ... NOT available
Auxiliary Correlation fitting basis         ... NOT available
Auxiliary 'external' fitting basis          ... NOT available
Integral threshold                          ...     1.000000e-12
Primitive cut-off                           ...     1.000000e-14
Primitive pair pre-selection threshold      ...     1.000000e-14

Calculating pre-screening integrals         ... done (  0.0 sec) Dimension = 115
Calculating pre-screening integrals (ORCA)  ... done (  0.1 sec) Dimension = 79
Organizing shell pair data                  ... done (  0.0 sec)
Shell pair information
Total number of shell pairs                 ...      6670
Shell pairs after pre-screening             ...      6002
Total number of primitive shell pairs       ...      9486
Primitive shell pairs kept                  ...      8107
          la=0 lb=0:   2207 shell pairs
          la=1 lb=0:   2075 shell pairs
          la=1 lb=1:    406 shell pairs
          la=2 lb=0:    900 shell pairs
          la=2 lb=1:    336 shell pairs
          la=2 lb=2:     78 shell pairs

Calculating one electron integrals          ... done (  0.0 sec)
Calculating Nuclear repulsion               ... done (  0.0 sec) ENN=    214.850568283403 Eh

SHARK setup successfully completed in   0.2 seconds

Maximum memory used throughout the entire GTOINT-calculation: 15.5 MB

An Electric Field will be added: -8.000e-03 0.000e+00 0.000e+00 au

  ... done adding electric field perturbation



           ************************************************************
           *        Program running with 16 parallel MPI-processes    *
           *              working on a common directory               *
           ************************************************************

Diagonalization of the overlap matrix:
Smallest eigenvalue                        ... 1.248e-05
Time for diagonalization                   ...    0.004 sec
Threshold for overlap eigenvalues          ... 1.000e-08
Number of eigenvalues below threshold      ... 0
Time for construction of square roots      ...    0.011 sec
Total time needed                          ...    0.026 sec

Time for model grid setup =    0.048 sec

Loading Hartree-Fock densities                     ... done
Calculating cut-offs                               ... done
Initializing the effective Hamiltonian             ... done
Setting up the integral package (SHARK)            ... done
Starting the Coulomb interaction                   ... done (   0.0 sec)
Reading the grid                                   ... done
Mapping shells                                     ... done
Starting the XC term evaluation                    ... done (   0.0 sec)
Transforming the Hamiltonian                       ... done (   0.0 sec)
Diagonalizing the Hamiltonian                      ... done (   0.0 sec)
Back transforming the eigenvectors                 ... done (   0.0 sec)
Now organizing SCF variables                       ... done
--------------
SCF ITERATIONS
--------------
ITER       Energy         Delta-E        Max-DP      RMS-DP      [F,P]     Damp
               ***  Starting incremental Fock matrix formation  ***
  0   -246.3420801614   0.000000000000 0.61308604  0.01387268  0.2813636 0.7000
  1   -246.4389575903  -0.096877428878 0.46452064  0.01032443  0.1777262 0.7000
                               ***Turning on DIIS***
  2   -246.4962837459  -0.057326155671 0.32969846  0.00717415  0.1033182 0.7000
  3   -247.1802324530  -0.683948707106 0.77643485  0.01640346  0.0606259 0.0000
  4   -246.5210647626   0.659167690405 0.02305712  0.00057531  0.0083845 0.0000
                      *** Initiating the SOSCF procedure ***
                           *** Shutting down DIIS ***
                      *** Re-Reading the Fockian *** 
                      *** Removing any level shift *** 
ITER      Energy       Delta-E        Grad      Rot      Max-DP    RMS-DP
  5   -246.60886281  -0.0877980512  0.001474  0.001474  0.016978  0.000376
               *** Restarting incremental Fock matrix formation ***
  6   -246.61343284  -0.0045700267  0.000551  0.001105  0.010901  0.000240
  7   -246.61345220  -0.0000193599  0.000289  0.001182  0.007947  0.000176
  8   -246.61345829  -0.0000060871  0.000091  0.000231  0.000880  0.000026
  9   -246.61345898  -0.0000006908  0.000090  0.000310  0.001159  0.000027
 10   -246.61345920  -0.0000002190  0.000018  0.000067  0.000293  0.000008
 11   -246.61345922  -0.0000000187  0.000008  0.000013  0.000064  0.000002
 12   -246.61345922  -0.0000000025  0.000002  0.000002  0.000020  0.000001
 13   -246.61345922  -0.0000000002  0.000001  0.000001  0.000006  0.000000
                  ***Gradient check signals convergence***
              ***Rediagonalizing the Fockian in SOSCF/NRSCF***

               *****************************************************
               *                     SUCCESS                       *
               *           SCF CONVERGED AFTER  14 CYCLES          *
               *****************************************************

Total Energy       :         -246.61345922 Eh           -6710.69339 eV
  Last Energy change         ...   -1.9327e-12  Tolerance :   1.0000e-09
  Last MAX-Density change    ...    3.4794e-06  Tolerance :   1.0000e-08
             **** THE GBW FILE WAS UPDATED (piridine_efield_x_-0.008.gbw) ****
             **** DENSITY piridine_efield_x_-0.008.scfp WAS UPDATED ****
             **** ENERGY FILE WAS UPDATED (piridine_efield_x_-0.008.en.tmp) ****
             **** THE GBW FILE WAS UPDATED (piridine_efield_x_-0.008.gbw) ****
             **** DENSITY piridine_efield_x_-0.008.scfp WAS UPDATED ****
----------------
ORBITAL ENERGIES
----------------

  NO   OCC          E(Eh)            E(eV) 
   0   2.0000     -15.528684      -422.5570 
   1   2.0000     -11.269725      -306.6648 
   2   2.0000     -11.269685      -306.6637 
   3   2.0000     -11.249003      -306.1009 
   4   2.0000     -11.241555      -305.8983 
   5   2.0000     -11.241451      -305.8954 
   6   2.0000      -1.341826       -36.5130 
   7   2.0000      -1.082176       -29.4475 
   8   2.0000      -1.075382       -29.2626 
   9   2.0000      -0.884183       -24.0598 
  10   2.0000      -0.842389       -22.9226 
  11   2.0000      -0.744169       -20.2499 
  12   2.0000      -0.700788       -19.0694 
  13   2.0000      -0.645244       -17.5580 
  14   2.0000      -0.601282       -16.3617 
  15   2.0000      -0.592766       -16.1300 
  16   2.0000      -0.573322       -15.6009 
  17   2.0000      -0.533141       -14.5075 
  18   2.0000      -0.384747       -10.4695 
  19   2.0000      -0.348081        -9.4718 
  20   2.0000      -0.330186        -8.9848 
  21   0.0000       0.024328         0.6620 
  22   0.0000       0.037701         1.0259 
  23   0.0000       0.038654         1.0518 
  24   0.0000       0.054605         1.4859 
  25   0.0000       0.060160         1.6370 
  26   0.0000       0.084057         2.2873 
  27   0.0000       0.103612         2.8194 
  28   0.0000       0.110364         3.0032 
  29   0.0000       0.115138         3.1331 
  30   0.0000       0.121935         3.3180 
  31   0.0000       0.130366         3.5474 
  32   0.0000       0.133061         3.6208 
  33   0.0000       0.140236         3.8160 
  34   0.0000       0.153261         4.1704 
  35   0.0000       0.153654         4.1811 
  36   0.0000       0.159576         4.3423 
  37   0.0000       0.163219         4.4414 
  38   0.0000       0.176631         4.8064 
  39   0.0000       0.179922         4.8959 
  40   0.0000       0.186946         5.0871 
  41   0.0000       0.187887         5.1127 
  42   0.0000       0.193726         5.2715 
  43   0.0000       0.202376         5.5069 
  44   0.0000       0.239091         6.5060 
  45   0.0000       0.276269         7.5177 
  46   0.0000       0.277915         7.5625 
  47   0.0000       0.293588         7.9889 
  48   0.0000       0.305418         8.3108 
  49   0.0000       0.309448         8.4205 
  50   0.0000       0.325901         8.8682 
  51   0.0000       0.334188         9.0937 
  52   0.0000       0.334683         9.1072 
  53   0.0000       0.357734         9.7344 
  54   0.0000       0.367858        10.0099 
  55   0.0000       0.368820        10.0361 
  56   0.0000       0.371274        10.1029 
  57   0.0000       0.380900        10.3648 
  58   0.0000       0.403650        10.9839 
  59   0.0000       0.427046        11.6205 
  60   0.0000       0.428559        11.6617 
  61   0.0000       0.431424        11.7396 
  62   0.0000       0.443582        12.0705 
  63   0.0000       0.452133        12.3032 
  64   0.0000       0.468683        12.7535 
  65   0.0000       0.498525        13.5656 
  66   0.0000       0.531625        14.4663 
  67   0.0000       0.547760        14.9053 
  68   0.0000       0.550099        14.9690 
  69   0.0000       0.562842        15.3157 
  70   0.0000       0.573902        15.6167 
  71   0.0000       0.576317        15.6824 
  72   0.0000       0.596697        16.2369 
  73   0.0000       0.605469        16.4756 
  74   0.0000       0.617773        16.8105 
  75   0.0000       0.620334        16.8802 
  76   0.0000       0.649825        17.6826 
  77   0.0000       0.659511        17.9462 
  78   0.0000       0.673442        18.3253 
  79   0.0000       0.675496        18.3812 
  80   0.0000       0.676041        18.3960 
  81   0.0000       0.689274        18.7561 
  82   0.0000       0.690009        18.7761 
  83   0.0000       0.691834        18.8258 
  84   0.0000       0.710074        19.3221 
  85   0.0000       0.727645        19.8002 
  86   0.0000       0.728369        19.8199 
  87   0.0000       0.729474        19.8500 
  88   0.0000       0.756327        20.5807 
  89   0.0000       0.761868        20.7315 
  90   0.0000       0.809329        22.0230 
  91   0.0000       0.816198        22.2099 
  92   0.0000       0.841150        22.8889 
  93   0.0000       0.848575        23.0909 
  94   0.0000       0.866833        23.5877 
  95   0.0000       0.873747        23.7759 
  96   0.0000       0.882525        24.0147 
  97   0.0000       0.905523        24.6405 
  98   0.0000       0.911568        24.8050 
  99   0.0000       0.919454        25.0196 
 100   0.0000       0.936802        25.4917 
 101   0.0000       0.966915        26.3111 
 102   0.0000       0.983850        26.7719 
 103   0.0000       1.006732        27.3946 
 104   0.0000       1.018118        27.7044 
 105   0.0000       1.044463        28.4213 
 106   0.0000       1.089572        29.6488 
 107   0.0000       1.104138        30.0451 
 108   0.0000       1.111576        30.2475 
 109   0.0000       1.114125        30.3169 
 110   0.0000       1.132374        30.8135 
 111   0.0000       1.152074        31.3495 
 112   0.0000       1.180465        32.1221 
 113   0.0000       1.243148        33.8278 
 114   0.0000       1.345599        36.6156 
 115   0.0000       1.362497        37.0754 
 116   0.0000       1.371221        37.3128 
 117   0.0000       1.401116        38.1263 
 118   0.0000       1.402908        38.1751 
 119   0.0000       1.470138        40.0045 
 120   0.0000       1.508952        41.0607 
 121   0.0000       1.511961        41.1426 
 122   0.0000       1.520843        41.3842 
 123   0.0000       1.523775        41.4640 
 124   0.0000       1.596473        43.4422 
 125   0.0000       1.604034        43.6480 
 126   0.0000       1.609225        43.7892 
 127   0.0000       1.630141        44.3584 
 128   0.0000       1.664442        45.2918 
 129   0.0000       1.690002        45.9873 
 130   0.0000       1.690283        45.9949 
 131   0.0000       1.694418        46.1074 
 132   0.0000       1.713944        46.6388 
 133   0.0000       1.746933        47.5365 
 134   0.0000       1.814613        49.3781 
 135   0.0000       1.818815        49.4925 
 136   0.0000       1.847457        50.2719 
 137   0.0000       1.855152        50.4813 
 138   0.0000       1.893654        51.5289 
 139   0.0000       1.914305        52.0909 
 140   0.0000       1.946458        52.9658 
 141   0.0000       1.963123        53.4193 
 142   0.0000       2.000089        54.4252 
 143   0.0000       2.017132        54.8890 
 144   0.0000       2.064177        56.1691 
 145   0.0000       2.109811        57.4109 
 146   0.0000       2.119537        57.6755 
 147   0.0000       2.147603        58.4392 
 148   0.0000       2.162247        58.8377 
 149   0.0000       2.167526        58.9814 
 150   0.0000       2.224974        60.5446 
 151   0.0000       2.249909        61.2231 
 152   0.0000       2.252221        61.2861 
 153   0.0000       2.281219        62.0751 
 154   0.0000       2.325040        63.2676 
 155   0.0000       2.340625        63.6917 
 156   0.0000       2.345744        63.8309 
 157   0.0000       2.362389        64.2839 
 158   0.0000       2.419300        65.8325 
 159   0.0000       2.438841        66.3642 
 160   0.0000       2.469001        67.1849 
 161   0.0000       2.519591        68.5616 
 162   0.0000       2.559063        69.6357 
 163   0.0000       2.590466        70.4902 
 164   0.0000       2.639579        71.8266 
 165   0.0000       2.752583        74.9016 
 166   0.0000       2.824353        76.8545 
 167   0.0000       2.837647        77.2163 
 168   0.0000       2.846480        77.4566 
 169   0.0000       2.914294        79.3020 
 170   0.0000       2.936459        79.9051 
 171   0.0000       2.953699        80.3742 
 172   0.0000       2.985052        81.2274 
 173   0.0000       3.105187        84.4964 
 174   0.0000       3.140382        85.4541 
 175   0.0000       3.196452        86.9799 
 176   0.0000       3.309760        90.0631 
 177   0.0000       3.456263        94.0497 
 178   0.0000       3.505246        95.3826 
 179   0.0000       3.609751        98.2263 
 180   0.0000       3.946381       107.3865 
 181   0.0000       3.966368       107.9304 
 182   0.0000       4.506358       122.6242 
Total SCF time: 0 days 0 hours 0 min 9 sec 

Maximum memory used throughout the entire SCF-calculation: 229.7 MB

-------------------------   --------------------
FINAL SINGLE POINT ENERGY      -246.613459218877
-------------------------   --------------------


                            ***************************************
                            *     ORCA property calculations      *
                            ***************************************

                                    ---------------------
                                    Active property flags
                                    ---------------------
   (+) Dipole Moment
   (+) Polarizability


------------------------------------------------------------------------------
                       ORCA ELECTRIC PROPERTIES CALCULATION
------------------------------------------------------------------------------

Dipole Moment Calculation                       ... on
Quadrupole Moment Calculation                   ... off
Polarizability Calculation                      ... Analytic (CP-SCF)
GBWName                                         ... piridine_efield_x_-0.008.gbw
Electron density                                ... piridine_efield_x_-0.008.scfp
The origin for moment calculation is the CENTER OF MASS  = (-0.340579,  0.682087  0.420996)

-------------
DIPOLE MOMENT
-------------
                                X             Y             Z
Electronic contribution:     -0.31921       0.00000       1.47814
Nuclear contribution   :      0.00000      -0.00000      -1.88024
                        -----------------------------------------
Total Dipole Moment    :     -0.31921       0.00000      -0.40211
                        -----------------------------------------
Magnitude (a.u.)       :      0.51341
Magnitude (Debye)      :      1.30498



--------------------
Rotational spectrum 
--------------------
 
Rotational constants in cm-1:     0.229528     0.201222     0.107222 
Rotational constants in MHz :  6881.073070  6032.486698  3214.449192 

 Dipole components along the rotational axes: 
x,y,z [a.u.] :     0.000000    -0.402106     0.319213 
x,y,z [Debye]:     0.000000    -1.022072     0.811374 

 
Transforming and storing MO dipole integrals   ... done

                ... starting polarizability calculation

The origin for moment calculation is the CENTER OF MASS  = (-0.340579,  0.682087  0.420996)
Opening the Dipole integral file               ... (piridine_efield_x_-0.008.dmo.tmp) done
Reading Dipole-MO integrals                    ... done
Solving CP-SCF equations                       ... 

           ************************************************************
           *        Program running with 16 parallel MPI-processes    *
           *              working on a common directory               *
           ************************************************************

------------------------------------------------------------------------------
                           ORCA CP-SCF CALCULATION
------------------------------------------------------------------------------

Input orbitals are from        ... piridine_efield_x_-0.008.gbw
Input Perturbation             ... piridine_efield_x_-0.008.cpv.tmp
Wavefunction output            ... piridine_efield_x_-0.008.cpu.tmp
Perturbation mode              ... Real perturbation (singlet)
Solver                         ... POPLE
Max. number of iterations      ... 64
Convergence tolerance          ... 3.000e-05
Integral handling              ... Direct
Number of perturbations        ... 3
Number of operators            ... 1
Orbital ranges used for CP-SCF:
 Operator 0:  Orbitals   0... 20  to  21...182
Variables per perturbation     ... 3402
Memory available               ... 1993.8 MB
Memory needed per perturbation ...   1.0 MB
Perturbations treated per batch... 3
Number of batches              ... 1
     CP-SCF ITERATION   0:   2.0840e+00 (   1.1 sec   0/  3 done)
     CP-SCF ITERATION   1:   4.1202e-01 (   1.2 sec   0/  3 done)
     CP-SCF ITERATION   2:   1.2153e-01 (   1.2 sec   0/  3 done)
     CP-SCF ITERATION   3:   5.3684e-02 (   1.2 sec   0/  3 done)
     CP-SCF ITERATION   4:   2.1240e-02 (   1.2 sec   0/  3 done)
     CP-SCF ITERATION   5:   9.5665e-03 (   1.2 sec   0/  3 done)
     CP-SCF ITERATION   6:   2.7594e-03 (   1.2 sec   0/  3 done)
     CP-SCF ITERATION   7:   6.0096e-04 (   1.2 sec   0/  3 done)
     CP-SCF ITERATION   8:   1.5259e-04 (   1.2 sec   0/  3 done)
     CP-SCF ITERATION   9:   4.6768e-05 (   1.2 sec   2/  3 done)
     CP-SCF ITERATION  10:   1.2872e-05 (   0.8 sec   3/  3 done)
                    *** THE CP-SCF HAS CONVERGED ***
done
Reading CP-SCF coefficients                    ... done
Doing the polarizability tensor                ... done
Cleaning up                                    ... done

-------------------------
THE POLARIZABILITY TENSOR
-------------------------

The raw cartesian tensor (atomic units):
   40.11383     -0.00000     -0.20473  
   -0.00000     80.04713     -0.00000  
   -0.20473     -0.00000     65.79773  
diagonalized tensor: 
   40.11219     65.79936     80.04713  

    0.99997     -0.00797     -0.00000  
    0.00000      0.00000      1.00000  
    0.00797      0.99997     -0.00000  

Isotropic polarizability :  61.98623


Timings for individual modules:

Sum of individual times         ...       30.438 sec (=   0.507 min)
GTO integral calculation        ...        2.935 sec (=   0.049 min)   9.6 %
SCF iterations                  ...       12.365 sec (=   0.206 min)  40.6 %
Solution of CP-SCF eqns.        ...       15.138 sec (=   0.252 min)  49.7 %
                             ****ORCA TERMINATED NORMALLY****
TOTAL RUN TIME: 0 days 0 hours 0 minutes 33 seconds 639 msec
