
                                 *****************
                                 * O   R   C   A *
                                 *****************

                                            #,                                       
                                            ###                                      
                                            ####                                     
                                            #####                                    
                                            ######                                   
                                           ########,                                 
                                     ,,################,,,,,                         
                               ,,#################################,,                 
                          ,,##########################################,,             
                       ,#########################################, ''#####,          
                    ,#############################################,,   '####,        
                  ,##################################################,,,,####,       
                ,###########''''           ''''###############################       
              ,#####''   ,,,,##########,,,,          '''####'''          '####       
            ,##' ,,,,###########################,,,                        '##       
           ' ,,###''''                  '''############,,,                           
         ,,##''                                '''############,,,,        ,,,,,,###''
      ,#''                                            '''#######################'''  
     '                                                          ''''####''''         
             ,#######,   #######,   ,#######,      ##                                
            ,#'     '#,  ##    ##  ,#'     '#,    #''#        ######   ,####,        
            ##       ##  ##   ,#'  ##            #'  '#       #        #'  '#        
            ##       ##  #######   ##           ,######,      #####,   #    #        
            '#,     ,#'  ##    ##  '#,     ,#' ,#      #,         ##   #,  ,#        
             '#######'   ##     ##  '#######'  #'      '#     #####' # '####'        



                  #######################################################
                  #                        -***-                        #
                  #          Department of theory and spectroscopy      #
                  #    Directorship and core code : Frank Neese         #
                  #        Max Planck Institute fuer Kohlenforschung    #
                  #                Kaiser Wilhelm Platz 1               #
                  #                 D-45470 Muelheim/Ruhr               #
                  #                      Germany                        #
                  #                                                     #
                  #                  All rights reserved                #
                  #                        -***-                        #
                  #######################################################


                         Program Version 5.0.4 -  RELEASE  -


 With contributions from (in alphabetic order):
   Daniel Aravena         : Magnetic Suceptibility
   Michael Atanasov       : Ab Initio Ligand Field Theory (pilot matlab implementation)
   Alexander A. Auer      : GIAO ZORA, VPT2 properties, NMR spectrum
   Ute Becker             : Parallelization
   Giovanni Bistoni       : ED, misc. LED, open-shell LED, HFLD
   Martin Brehm           : Molecular dynamics
   Dmytro Bykov           : SCF Hessian
   Vijay G. Chilkuri      : MRCI spin determinant printing, contributions to CSF-ICE
   Dipayan Datta          : RHF DLPNO-CCSD density
   Achintya Kumar Dutta   : EOM-CC, STEOM-CC
   Dmitry Ganyushin       : Spin-Orbit,Spin-Spin,Magnetic field MRCI
   Miquel Garcia          : C-PCM and meta-GGA Hessian, CC/C-PCM, Gaussian charge scheme
   Yang Guo               : DLPNO-NEVPT2, F12-NEVPT2, CIM, IAO-localization
   Andreas Hansen         : Spin unrestricted coupled pair/coupled cluster methods
   Benjamin Helmich-Paris : MC-RPA, TRAH-SCF, COSX integrals
   Lee Huntington         : MR-EOM, pCC
   Robert Izsak           : Overlap fitted RIJCOSX, COSX-SCS-MP3, EOM
   Marcus Kettner         : VPT2
   Christian Kollmar      : KDIIS, OOCD, Brueckner-CCSD(T), CCSD density, CASPT2, CASPT2-K
   Simone Kossmann        : Meta GGA functionals, TD-DFT gradient, OOMP2, MP2 Hessian
   Martin Krupicka        : Initial AUTO-CI
   Lucas Lang             : DCDCAS
   Marvin Lechner         : AUTO-CI (C++ implementation), FIC-MRCC
   Dagmar Lenk            : GEPOL surface, SMD
   Dimitrios Liakos       : Extrapolation schemes; Compound Job, initial MDCI parallelization
   Dimitrios Manganas     : Further ROCIS development; embedding schemes
   Dimitrios Pantazis     : SARC Basis sets
   Anastasios Papadopoulos: AUTO-CI, single reference methods and gradients
   Taras Petrenko         : DFT Hessian,TD-DFT gradient, ASA, ECA, R-Raman, ABS, FL, XAS/XES, NRVS
   Peter Pinski           : DLPNO-MP2, DLPNO-MP2 Gradient
   Christoph Reimann      : Effective Core Potentials
   Marius Retegan         : Local ZFS, SOC
   Christoph Riplinger    : Optimizer, TS searches, QM/MM, DLPNO-CCSD(T), (RO)-DLPNO pert. Triples
   Tobias Risthaus        : Range-separated hybrids, TD-DFT gradient, RPA, STAB
   Michael Roemelt        : Original ROCIS implementation
   Masaaki Saitow         : Open-shell DLPNO-CCSD energy and density
   Barbara Sandhoefer     : DKH picture change effects
   Avijit Sen             : IP-ROCIS
   Kantharuban Sivalingam : CASSCF convergence, NEVPT2, FIC-MRCI
   Bernardo de Souza      : ESD, SOC TD-DFT
   Georgi Stoychev        : AutoAux, RI-MP2 NMR, DLPNO-MP2 response
   Willem Van den Heuvel  : Paramagnetic NMR
   Boris Wezisla          : Elementary symmetry handling
   Frank Wennmohs         : Technical directorship


 We gratefully acknowledge several colleagues who have allowed us to
 interface, adapt or use parts of their codes:
   Stefan Grimme, W. Hujo, H. Kruse, P. Pracht,  : VdW corrections, initial TS optimization,
                  C. Bannwarth, S. Ehlert          DFT functionals, gCP, sTDA/sTD-DF
   Ed Valeev, F. Pavosevic, A. Kumar             : LibInt (2-el integral package), F12 methods
   Garnet Chan, S. Sharma, J. Yang, R. Olivares  : DMRG
   Ulf Ekstrom                                   : XCFun DFT Library
   Mihaly Kallay                                 : mrcc  (arbitrary order and MRCC methods)
   Jiri Pittner, Ondrej Demel                    : Mk-CCSD
   Frank Weinhold                                : gennbo (NPA and NBO analysis)
   Christopher J. Cramer and Donald G. Truhlar   : smd solvation model
   Lars Goerigk                                  : TD-DFT with DH, B97 family of functionals
   V. Asgeirsson, H. Jonsson                     : NEB implementation
   FAccTs GmbH                                   : IRC, NEB, NEB-TS, DLPNO-Multilevel, CI-OPT
                                                   MM, QMMM, 2- and 3-layer-ONIOM, Crystal-QMMM,
                                                   LR-CPCM, SF, NACMEs, symmetry and pop. for TD-DFT,
                                                   nearIR, NL-DFT gradient (VV10), updates on ESD,
                                                   ML-optimized integration grids
   S Lehtola, MJT Oliveira, MAL Marques          : LibXC Library
   Liviu Ungur et al                             : ANISO software


 Your calculation uses the libint2 library for the computation of 2-el integrals
 For citations please refer to: http://libint.valeyev.net

 Your ORCA version has been built with support for libXC version: 5.1.0
 For citations please refer to: https://tddft.org/programs/libxc/

 This ORCA versions uses:
   CBLAS   interface :  Fast vector & matrix operations
   LAPACKE interface :  Fast linear algebra routines
   SCALAPACK package :  Parallel linear algebra routines
   Shared memory     :  Shared parallel matrices
   BLAS/LAPACK       :  OpenBLAS 0.3.15  USE64BITINT DYNAMIC_ARCH NO_AFFINITY SkylakeX SINGLE_THREADED
        Core in use  :  SkylakeX
   Copyright (c) 2011-2014, The OpenBLAS Project


================================================================================

----- Orbital basis set information -----
Your calculation utilizes the basis: aug-cc-pVDZ 
    H, B-Ne : Obtained from the ccRepo (grant-hill.group.shef.ac.uk/ccrepo) Feb. 2017
              R. A. Kendall, T. H. Dunning, Jr., R. J. Harrison, J. Chem. Phys. 96, 6796 (1992)
         He : Obtained from the ccRepo (grant-hill.group.shef.ac.uk/ccrepo) Feb. 2017
              D. E. Woon, T. H. Dunning, Jr., J. Chem. Phys. 100, 2975 (1994)
  Li-Be, Na : Obtained from the ccRepo (grant-hill.group.shef.ac.uk/ccrepo) Feb. 2017
              B. P. Prascher, D. E. Woon, K. A. Peterson, T. H. Dunning, Jr., A. K. Wilson, Theor. Chem. Acc. 128, 69 (2011)
         Mg : Obtained from the Peterson Research Group Website (tyr0.chem.wsu.edu/~kipeters) Feb. 2017
              B. P. Prascher, D. E. Woon, K. A. Peterson, T. H. Dunning, Jr., A. K. Wilson, Theor. Chem. Acc. 128, 69 (2011)
      Al-Ar : Obtained from the ccRepo (grant-hill.group.shef.ac.uk/ccrepo) Feb. 2017
              D. E. Woon, T. H. Dunning, Jr., J. Chem. Phys. 98, 1358 (1993)
      Sc-Zn : Obtained from the ccRepo (grant-hill.group.shef.ac.uk/ccrepo) Feb. 2017
              N. B. Balabanov, K. A. Peterson, J. Chem. Phys. 123, 064107 (2005)
              N. B. Balabanov, K. A. Peterson, J. Chem. Phys. 125, 074110 (2006)
      Ga-Kr : Obtained from the ccRepo (grant-hill.group.shef.ac.uk/ccrepo) Feb. 2017
              A. K. Wilson, D. E. Woon, K. A. Peterson, T. H. Dunning, Jr., J. Chem. Phys. 110, 7667 (1999)

================================================================================
                                        WARNINGS
                       Please study these warnings very carefully!
================================================================================


INFO   : the flag for use of the SHARK integral package has been found!

================================================================================
                                       INPUT FILE
================================================================================
NAME = piridine_efield_y_-0.004.inp
|  1> ! hf aug-cc-pVDZ
|  2> ! MiniPrint VeryTightSCF
|  3> %pal
|  4>  nprocs 16
|  5> end
|  6> %MaxCore 2000
|  7> %scf
|  8>  maxiter=200
|  9>  efield 0.0 , -0.004 , 0.0
| 10> end
| 11> %elprop
| 12>   polar 1
| 13> end
| 14> * xyz 0 1
| 15> C       -0.180226841      0.360945118     -1.120304970
| 16> C       -0.180226841      1.559292118     -0.407860970
| 17> C       -0.180226841      1.503191118      0.986935030
| 18> N       -0.180226841      0.360945118      1.29018350
| 19> C       -0.180226841     -0.781300882      0.986935030
| 20> C       -0.180226841     -0.837401882     -0.407860970
| 21> H       -0.180226841      0.360945118     -2.206546970
| 22> H       -0.180226841      2.517950118     -0.917077970
| 23> H       -0.180226841      2.421289118      1.572099030
| 24> H       -0.180226841     -1.699398882      1.572099030
| 25> H       -0.180226841     -1.796059882     -0.917077970
| 26> *
| 27> 
| 28>                          ****END OF INPUT****
================================================================================

                       ****************************
                       * Single Point Calculation *
                       ****************************

---------------------------------
CARTESIAN COORDINATES (ANGSTROEM)
---------------------------------
  C     -0.180227    0.360945   -1.120305
  C     -0.180227    1.559292   -0.407861
  C     -0.180227    1.503191    0.986935
  N     -0.180227    0.360945    1.290183
  C     -0.180227   -0.781301    0.986935
  C     -0.180227   -0.837402   -0.407861
  H     -0.180227    0.360945   -2.206547
  H     -0.180227    2.517950   -0.917078
  H     -0.180227    2.421289    1.572099
  H     -0.180227   -1.699399    1.572099
  H     -0.180227   -1.796060   -0.917078

----------------------------
CARTESIAN COORDINATES (A.U.)
----------------------------
  NO LB      ZA    FRAG     MASS         X           Y           Z
   0 C     6.0000    0    12.011   -0.340579    0.682087   -2.117070
   1 C     6.0000    0    12.011   -0.340579    2.946635   -0.770746
   2 C     6.0000    0    12.011   -0.340579    2.840620    1.865037
   3 N     7.0000    0    14.007   -0.340579    0.682087    2.438093
   4 C     6.0000    0    12.011   -0.340579   -1.476445    1.865037
   5 C     6.0000    0    12.011   -0.340579   -1.582460   -0.770746
   6 H     1.0000    0     1.008   -0.340579    0.682087   -4.169769
   7 H     1.0000    0     1.008   -0.340579    4.758236   -1.733026
   8 H     1.0000    0     1.008   -0.340579    4.575573    2.970837
   9 H     1.0000    0     1.008   -0.340579   -3.211398    2.970837
  10 H     1.0000    0     1.008   -0.340579   -3.394061   -1.733026



           ************************************************************
           *        Program running with 16 parallel MPI-processes    *
           *              working on a common directory               *
           ************************************************************
------------------------------------------------------------------------------
                   ___                                                        
                  /   \      - P O W E R E D   B Y -                         
                 /     \                                                     
                 |  |  |   _    _      __       _____    __    __             
                 |  |  |  | |  | |    /  \     |  _  \  |  |  /  |          
                  \  \/   | |  | |   /    \    | | | |  |  | /  /          
                 / \  \   | |__| |  /  /\  \   | |_| |  |  |/  /          
                |  |  |   |  __  | /  /__\  \  |    /   |      \           
                |  |  |   | |  | | |   __   |  |    \   |  |\   \          
                \     /   | |  | | |  |  |  |  | |\  \  |  | \   \       
                 \___/    |_|  |_| |__|  |__|  |_| \__\ |__|  \__/        
                                                                              
                      - O R C A' S   B I G   F R I E N D -                    
                                      &                                       
                       - I N T E G R A L  F E E D E R -                       
                                                                              
 v1 FN, 2020, v2 2021                                                         
------------------------------------------------------------------------------


Reading SHARK input file piridine_efield_y_-0.004.SHARKINP.tmp ... ok
----------------------
SHARK INTEGRAL PACKAGE
----------------------

Number of atoms                             ...     11
Number of basis functions                   ...    219
Number of shells                            ...    115
Maximum angular momentum                    ...      2
Integral batch strategy                     ... SHARK/LIBINT Hybrid
RI-J (if used) integral strategy            ... SPLIT-RIJ (Revised 2003 algorithm where possible)
Printlevel                                  ...      1
Contraction scheme used                     ... PARTIAL GENERAL contraction
Coulomb Range Separation                    ... NOT USED
Exchange Range Separation                   ... NOT USED
Finite Nucleus Model                        ... NOT USED
Auxiliary Coulomb fitting basis             ... NOT available
Auxiliary J/K fitting basis                 ... NOT available
Auxiliary Correlation fitting basis         ... NOT available
Auxiliary 'external' fitting basis          ... NOT available
Integral threshold                          ...     1.000000e-12
Primitive cut-off                           ...     1.000000e-14
Primitive pair pre-selection threshold      ...     1.000000e-14

Calculating pre-screening integrals         ... done (  0.0 sec) Dimension = 115
Calculating pre-screening integrals (ORCA)  ... done (  0.1 sec) Dimension = 79
Organizing shell pair data                  ... done (  0.0 sec)
Shell pair information
Total number of shell pairs                 ...      6670
Shell pairs after pre-screening             ...      6002
Total number of primitive shell pairs       ...      9486
Primitive shell pairs kept                  ...      8107
          la=0 lb=0:   2207 shell pairs
          la=1 lb=0:   2075 shell pairs
          la=1 lb=1:    406 shell pairs
          la=2 lb=0:    900 shell pairs
          la=2 lb=1:    336 shell pairs
          la=2 lb=2:     78 shell pairs

Calculating one electron integrals          ... done (  0.0 sec)
Calculating Nuclear repulsion               ... done (  0.0 sec) ENN=    214.850568283403 Eh

SHARK setup successfully completed in   0.2 seconds

Maximum memory used throughout the entire GTOINT-calculation: 15.5 MB

An Electric Field will be added: 0.000e+00 -4.000e-03 0.000e+00 au

  ... done adding electric field perturbation



           ************************************************************
           *        Program running with 16 parallel MPI-processes    *
           *              working on a common directory               *
           ************************************************************

Diagonalization of the overlap matrix:
Smallest eigenvalue                        ... 1.248e-05
Time for diagonalization                   ...    0.004 sec
Threshold for overlap eigenvalues          ... 1.000e-08
Number of eigenvalues below threshold      ... 0
Time for construction of square roots      ...    0.010 sec
Total time needed                          ...    0.015 sec

Time for model grid setup =    0.051 sec

Loading Hartree-Fock densities                     ... done
Calculating cut-offs                               ... done
Initializing the effective Hamiltonian             ... done
Setting up the integral package (SHARK)            ... done
Starting the Coulomb interaction                   ... done (   0.0 sec)
Reading the grid                                   ... done
Mapping shells                                     ... done
Starting the XC term evaluation                    ... done (   0.0 sec)
Transforming the Hamiltonian                       ... done (   0.0 sec)
Diagonalizing the Hamiltonian                      ... done (   0.0 sec)
Back transforming the eigenvectors                 ... done (   0.0 sec)
Now organizing SCF variables                       ... done
--------------
SCF ITERATIONS
--------------
ITER       Energy         Delta-E        Max-DP      RMS-DP      [F,P]     Damp
               ***  Starting incremental Fock matrix formation  ***
  0   -246.3405917135   0.000000000000 0.62535018  0.01388045  0.2815921 0.7000
  1   -246.4378409776  -0.097249264104 0.47229646  0.01032852  0.1778790 0.7000
                               ***Turning on DIIS***
  2   -246.4953405568  -0.057499579179 0.33390770  0.00717613  0.1034168 0.7000
  3   -247.1777334089  -0.682392852102 0.78168521  0.01640833  0.0606935 0.0000
  4   -246.5200716165   0.657661792417 0.02374963  0.00058639  0.0083908 0.0000
                      *** Initiating the SOSCF procedure ***
                           *** Shutting down DIIS ***
                      *** Re-Reading the Fockian *** 
                      *** Removing any level shift *** 
ITER      Energy       Delta-E        Grad      Rot      Max-DP    RMS-DP
  5   -246.60825314  -0.0881815199  0.001096  0.001096  0.017539  0.000383
               *** Restarting incremental Fock matrix formation ***
  6   -246.61279672  -0.0045435860  0.000508  0.001183  0.012045  0.000245
  7   -246.61281627  -0.0000195442  0.000292  0.001169  0.008708  0.000177
  8   -246.61282234  -0.0000060760  0.000087  0.000245  0.000970  0.000026
  9   -246.61282303  -0.0000006829  0.000088  0.000306  0.001260  0.000028
 10   -246.61282324  -0.0000002173  0.000019  0.000069  0.000310  0.000007
 11   -246.61282326  -0.0000000191  0.000008  0.000014  0.000071  0.000002
 12   -246.61282326  -0.0000000026  0.000002  0.000002  0.000027  0.000001
 13   -246.61282326  -0.0000000002  0.000001  0.000001  0.000006  0.000000
                  ***Gradient check signals convergence***
              ***Rediagonalizing the Fockian in SOSCF/NRSCF***

               *****************************************************
               *                     SUCCESS                       *
               *           SCF CONVERGED AFTER  14 CYCLES          *
               *****************************************************

Total Energy       :         -246.61282326 Eh           -6710.67609 eV
  Last Energy change         ...   -8.2423e-12  Tolerance :   1.0000e-09
  Last MAX-Density change    ...    3.6774e-06  Tolerance :   1.0000e-08
             **** THE GBW FILE WAS UPDATED (piridine_efield_y_-0.004.gbw) ****
             **** DENSITY piridine_efield_y_-0.004.scfp WAS UPDATED ****
             **** ENERGY FILE WAS UPDATED (piridine_efield_y_-0.004.en.tmp) ****
             **** THE GBW FILE WAS UPDATED (piridine_efield_y_-0.004.gbw) ****
             **** DENSITY piridine_efield_y_-0.004.scfp WAS UPDATED ****
----------------
ORBITAL ENERGIES
----------------

  NO   OCC          E(Eh)            E(eV) 
   0   2.0000     -15.528509      -422.5522 
   1   2.0000     -11.272262      -306.7339 
   2   2.0000     -11.266685      -306.5821 
   3   2.0000     -11.248711      -306.0930 
   4   2.0000     -11.244050      -305.9661 
   5   2.0000     -11.238460      -305.8140 
   6   2.0000      -1.341648       -36.5081 
   7   2.0000      -1.082113       -29.4458 
   8   2.0000      -1.075081       -29.2544 
   9   2.0000      -0.884026       -24.0556 
  10   2.0000      -0.842215       -22.9178 
  11   2.0000      -0.744134       -20.2489 
  12   2.0000      -0.700512       -19.0619 
  13   2.0000      -0.645136       -17.5551 
  14   2.0000      -0.601103       -16.3568 
  15   2.0000      -0.592667       -16.1273 
  16   2.0000      -0.573066       -15.5939 
  17   2.0000      -0.532777       -14.4976 
  18   2.0000      -0.384674       -10.4675 
  19   2.0000      -0.347844        -9.4653 
  20   2.0000      -0.329991        -8.9795 
  21   0.0000       0.012798         0.3483 
  22   0.0000       0.028165         0.7664 
  23   0.0000       0.047966         1.3052 
  24   0.0000       0.067067         1.8250 
  25   0.0000       0.080221         2.1829 
  26   0.0000       0.081751         2.2246 
  27   0.0000       0.102063         2.7773 
  28   0.0000       0.111238         3.0270 
  29   0.0000       0.115055         3.1308 
  30   0.0000       0.121925         3.3178 
  31   0.0000       0.127765         3.4767 
  32   0.0000       0.136590         3.7168 
  33   0.0000       0.136739         3.7208 
  34   0.0000       0.141579         3.8526 
  35   0.0000       0.150313         4.0902 
  36   0.0000       0.159983         4.3534 
  37   0.0000       0.162779         4.4294 
  38   0.0000       0.172357         4.6901 
  39   0.0000       0.180294         4.9060 
  40   0.0000       0.187802         5.1103 
  41   0.0000       0.193494         5.2652 
  42   0.0000       0.202053         5.4981 
  43   0.0000       0.202758         5.5173 
  44   0.0000       0.236703         6.4410 
  45   0.0000       0.276948         7.5362 
  46   0.0000       0.277307         7.5459 
  47   0.0000       0.293040         7.9740 
  48   0.0000       0.304808         8.2942 
  49   0.0000       0.307458         8.3664 
  50   0.0000       0.326348         8.8804 
  51   0.0000       0.329920         8.9776 
  52   0.0000       0.338243         9.2041 
  53   0.0000       0.356335         9.6964 
  54   0.0000       0.365550         9.9471 
  55   0.0000       0.367587        10.0026 
  56   0.0000       0.369644        10.0585 
  57   0.0000       0.380840        10.3632 
  58   0.0000       0.400363        10.8944 
  59   0.0000       0.428028        11.6472 
  60   0.0000       0.430935        11.7263 
  61   0.0000       0.434259        11.8168 
  62   0.0000       0.443884        12.0787 
  63   0.0000       0.452772        12.3206 
  64   0.0000       0.468699        12.7539 
  65   0.0000       0.497345        13.5335 
  66   0.0000       0.533225        14.5098 
  67   0.0000       0.547774        14.9057 
  68   0.0000       0.549708        14.9583 
  69   0.0000       0.562629        15.3099 
  70   0.0000       0.573800        15.6139 
  71   0.0000       0.576152        15.6779 
  72   0.0000       0.596946        16.2437 
  73   0.0000       0.604811        16.4578 
  74   0.0000       0.616244        16.7689 
  75   0.0000       0.622542        16.9402 
  76   0.0000       0.648481        17.6461 
  77   0.0000       0.659074        17.9343 
  78   0.0000       0.673337        18.3224 
  79   0.0000       0.673446        18.3254 
  80   0.0000       0.676382        18.4053 
  81   0.0000       0.689228        18.7549 
  82   0.0000       0.690493        18.7893 
  83   0.0000       0.692792        18.8518 
  84   0.0000       0.710897        19.3445 
  85   0.0000       0.727941        19.8083 
  86   0.0000       0.729022        19.8377 
  87   0.0000       0.729641        19.8546 
  88   0.0000       0.756568        20.5873 
  89   0.0000       0.763411        20.7735 
  90   0.0000       0.809654        22.0318 
  91   0.0000       0.815893        22.2016 
  92   0.0000       0.840316        22.8662 
  93   0.0000       0.848833        23.0979 
  94   0.0000       0.867209        23.5980 
  95   0.0000       0.874427        23.7944 
  96   0.0000       0.882340        24.0097 
  97   0.0000       0.905419        24.6377 
  98   0.0000       0.911831        24.8122 
  99   0.0000       0.919356        25.0169 
 100   0.0000       0.936606        25.4864 
 101   0.0000       0.967245        26.3201 
 102   0.0000       0.983833        26.7714 
 103   0.0000       1.007014        27.4023 
 104   0.0000       1.018067        27.7030 
 105   0.0000       1.044852        28.4319 
 106   0.0000       1.089961        29.6593 
 107   0.0000       1.103668        30.0323 
 108   0.0000       1.112120        30.2623 
 109   0.0000       1.114096        30.3161 
 110   0.0000       1.132306        30.8116 
 111   0.0000       1.152276        31.3550 
 112   0.0000       1.180785        32.1308 
 113   0.0000       1.243095        33.8263 
 114   0.0000       1.345718        36.6188 
 115   0.0000       1.362556        37.0770 
 116   0.0000       1.371102        37.3096 
 117   0.0000       1.401396        38.1339 
 118   0.0000       1.402931        38.1757 
 119   0.0000       1.470181        40.0057 
 120   0.0000       1.508767        41.0556 
 121   0.0000       1.511954        41.1424 
 122   0.0000       1.520738        41.3814 
 123   0.0000       1.524309        41.4786 
 124   0.0000       1.596284        43.4371 
 125   0.0000       1.604421        43.6585 
 126   0.0000       1.609489        43.7964 
 127   0.0000       1.629783        44.3487 
 128   0.0000       1.665303        45.3152 
 129   0.0000       1.689523        45.9742 
 130   0.0000       1.690463        45.9998 
 131   0.0000       1.694959        46.1222 
 132   0.0000       1.713994        46.6401 
 133   0.0000       1.746808        47.5331 
 134   0.0000       1.814515        49.3755 
 135   0.0000       1.819162        49.5019 
 136   0.0000       1.847456        50.2718 
 137   0.0000       1.855314        50.4857 
 138   0.0000       1.893860        51.5346 
 139   0.0000       1.914551        52.0976 
 140   0.0000       1.946501        52.9670 
 141   0.0000       1.963289        53.4238 
 142   0.0000       2.000107        54.4257 
 143   0.0000       2.017280        54.8930 
 144   0.0000       2.064383        56.1747 
 145   0.0000       2.109345        57.3982 
 146   0.0000       2.120181        57.6931 
 147   0.0000       2.147483        58.4360 
 148   0.0000       2.162400        58.8419 
 149   0.0000       2.167770        58.9880 
 150   0.0000       2.225230        60.5516 
 151   0.0000       2.248945        61.1969 
 152   0.0000       2.253402        61.3182 
 153   0.0000       2.281465        62.0818 
 154   0.0000       2.325270        63.2738 
 155   0.0000       2.340798        63.6964 
 156   0.0000       2.345471        63.8235 
 157   0.0000       2.362970        64.2997 
 158   0.0000       2.419498        65.8379 
 159   0.0000       2.439017        66.3690 
 160   0.0000       2.469182        67.1899 
 161   0.0000       2.519740        68.5656 
 162   0.0000       2.559263        69.6411 
 163   0.0000       2.590566        70.4929 
 164   0.0000       2.639714        71.8303 
 165   0.0000       2.752752        74.9062 
 166   0.0000       2.824385        76.8554 
 167   0.0000       2.837888        77.2229 
 168   0.0000       2.846626        77.4606 
 169   0.0000       2.914394        79.3047 
 170   0.0000       2.936674        79.9110 
 171   0.0000       2.953832        80.3779 
 172   0.0000       2.985356        81.2357 
 173   0.0000       3.105369        84.5014 
 174   0.0000       3.140549        85.4587 
 175   0.0000       3.196617        86.9844 
 176   0.0000       3.309957        90.0685 
 177   0.0000       3.456431        94.0543 
 178   0.0000       3.505434        95.3877 
 179   0.0000       3.609913        98.2307 
 180   0.0000       3.946488       107.3894 
 181   0.0000       3.966598       107.9366 
 182   0.0000       4.506543       122.6293 
Total SCF time: 0 days 0 hours 0 min 9 sec 

Maximum memory used throughout the entire SCF-calculation: 229.7 MB

-------------------------   --------------------
FINAL SINGLE POINT ENERGY      -246.612823264949
-------------------------   --------------------


                            ***************************************
                            *     ORCA property calculations      *
                            ***************************************

                                    ---------------------
                                    Active property flags
                                    ---------------------
   (+) Dipole Moment
   (+) Polarizability


------------------------------------------------------------------------------
                       ORCA ELECTRIC PROPERTIES CALCULATION
------------------------------------------------------------------------------

Dipole Moment Calculation                       ... on
Quadrupole Moment Calculation                   ... off
Polarizability Calculation                      ... Analytic (CP-SCF)
GBWName                                         ... piridine_efield_y_-0.004.gbw
Electron density                                ... piridine_efield_y_-0.004.scfp
The origin for moment calculation is the CENTER OF MASS  = (-0.340579,  0.682087  0.420996)

-------------
DIPOLE MOMENT
-------------
                                X             Y             Z
Electronic contribution:     -0.00000      -0.31973       1.47708
Nuclear contribution   :      0.00000      -0.00000      -1.88024
                        -----------------------------------------
Total Dipole Moment    :     -0.00000      -0.31973      -0.40316
                        -----------------------------------------
Magnitude (a.u.)       :      0.51456
Magnitude (Debye)      :      1.30790



--------------------
Rotational spectrum 
--------------------
 
Rotational constants in cm-1:     0.229528     0.201222     0.107222 
Rotational constants in MHz :  6881.073070  6032.486698  3214.449192 

 Dipole components along the rotational axes: 
x,y,z [a.u.] :    -0.319735    -0.403161     0.000000 
x,y,z [Debye]:    -0.812701    -1.024755     0.000000 

 
Transforming and storing MO dipole integrals   ... done

                ... starting polarizability calculation

The origin for moment calculation is the CENTER OF MASS  = (-0.340579,  0.682087  0.420996)
Opening the Dipole integral file               ... (piridine_efield_y_-0.004.dmo.tmp) done
Reading Dipole-MO integrals                    ... done
Solving CP-SCF equations                       ... 

           ************************************************************
           *        Program running with 16 parallel MPI-processes    *
           *              working on a common directory               *
           ************************************************************

------------------------------------------------------------------------------
                           ORCA CP-SCF CALCULATION
------------------------------------------------------------------------------

Input orbitals are from        ... piridine_efield_y_-0.004.gbw
Input Perturbation             ... piridine_efield_y_-0.004.cpv.tmp
Wavefunction output            ... piridine_efield_y_-0.004.cpu.tmp
Perturbation mode              ... Real perturbation (singlet)
Solver                         ... POPLE
Max. number of iterations      ... 64
Convergence tolerance          ... 3.000e-05
Integral handling              ... Direct
Number of perturbations        ... 3
Number of operators            ... 1
Orbital ranges used for CP-SCF:
 Operator 0:  Orbitals   0... 20  to  21...182
Variables per perturbation     ... 3402
Memory available               ... 1993.8 MB
Memory needed per perturbation ...   1.0 MB
Perturbations treated per batch... 3
Number of batches              ... 1
     CP-SCF ITERATION   0:   2.0843e+00 (   1.1 sec   0/  3 done)
     CP-SCF ITERATION   1:   4.1251e-01 (   1.2 sec   0/  3 done)
     CP-SCF ITERATION   2:   1.2178e-01 (   1.2 sec   0/  3 done)
     CP-SCF ITERATION   3:   5.3788e-02 (   1.2 sec   0/  3 done)
     CP-SCF ITERATION   4:   2.1251e-02 (   1.2 sec   0/  3 done)
     CP-SCF ITERATION   5:   9.5940e-03 (   1.2 sec   0/  3 done)
     CP-SCF ITERATION   6:   2.7579e-03 (   1.2 sec   0/  3 done)
     CP-SCF ITERATION   7:   6.1013e-04 (   1.2 sec   1/  3 done)
     CP-SCF ITERATION   8:   2.2953e-04 (   1.0 sec   1/  3 done)
     CP-SCF ITERATION   9:   6.5242e-05 (   1.0 sec   1/  3 done)
     CP-SCF ITERATION  10:   1.8184e-05 (   1.0 sec   3/  3 done)
                    *** THE CP-SCF HAS CONVERGED ***
done
Reading CP-SCF coefficients                    ... done
Doing the polarizability tensor                ... done
Cleaning up                                    ... done

-------------------------
THE POLARIZABILITY TENSOR
-------------------------

The raw cartesian tensor (atomic units):
   39.84051     -0.00000      0.00000  
   -0.00000     80.06261      0.12560  
    0.00000      0.12560     65.74974  
diagonalized tensor: 
   39.84051     65.74863     80.06371  

    1.00000     -0.00000     -0.00000  
    0.00000      0.00877      0.99996  
   -0.00000     -0.99996      0.00877  

Isotropic polarizability :  61.88428


Timings for individual modules:

Sum of individual times         ...       30.319 sec (=   0.505 min)
GTO integral calculation        ...        2.942 sec (=   0.049 min)   9.7 %
SCF iterations                  ...       12.516 sec (=   0.209 min)  41.3 %
Solution of CP-SCF eqns.        ...       14.860 sec (=   0.248 min)  49.0 %
                             ****ORCA TERMINATED NORMALLY****
TOTAL RUN TIME: 0 days 0 hours 0 minutes 33 seconds 396 msec
