
                                 *****************
                                 * O   R   C   A *
                                 *****************

                                            #,                                       
                                            ###                                      
                                            ####                                     
                                            #####                                    
                                            ######                                   
                                           ########,                                 
                                     ,,################,,,,,                         
                               ,,#################################,,                 
                          ,,##########################################,,             
                       ,#########################################, ''#####,          
                    ,#############################################,,   '####,        
                  ,##################################################,,,,####,       
                ,###########''''           ''''###############################       
              ,#####''   ,,,,##########,,,,          '''####'''          '####       
            ,##' ,,,,###########################,,,                        '##       
           ' ,,###''''                  '''############,,,                           
         ,,##''                                '''############,,,,        ,,,,,,###''
      ,#''                                            '''#######################'''  
     '                                                          ''''####''''         
             ,#######,   #######,   ,#######,      ##                                
            ,#'     '#,  ##    ##  ,#'     '#,    #''#        ######   ,####,        
            ##       ##  ##   ,#'  ##            #'  '#       #        #'  '#        
            ##       ##  #######   ##           ,######,      #####,   #    #        
            '#,     ,#'  ##    ##  '#,     ,#' ,#      #,         ##   #,  ,#        
             '#######'   ##     ##  '#######'  #'      '#     #####' # '####'        



                  #######################################################
                  #                        -***-                        #
                  #          Department of theory and spectroscopy      #
                  #    Directorship and core code : Frank Neese         #
                  #        Max Planck Institute fuer Kohlenforschung    #
                  #                Kaiser Wilhelm Platz 1               #
                  #                 D-45470 Muelheim/Ruhr               #
                  #                      Germany                        #
                  #                                                     #
                  #                  All rights reserved                #
                  #                        -***-                        #
                  #######################################################


                         Program Version 5.0.4 -  RELEASE  -


 With contributions from (in alphabetic order):
   Daniel Aravena         : Magnetic Suceptibility
   Michael Atanasov       : Ab Initio Ligand Field Theory (pilot matlab implementation)
   Alexander A. Auer      : GIAO ZORA, VPT2 properties, NMR spectrum
   Ute Becker             : Parallelization
   Giovanni Bistoni       : ED, misc. LED, open-shell LED, HFLD
   Martin Brehm           : Molecular dynamics
   Dmytro Bykov           : SCF Hessian
   Vijay G. Chilkuri      : MRCI spin determinant printing, contributions to CSF-ICE
   Dipayan Datta          : RHF DLPNO-CCSD density
   Achintya Kumar Dutta   : EOM-CC, STEOM-CC
   Dmitry Ganyushin       : Spin-Orbit,Spin-Spin,Magnetic field MRCI
   Miquel Garcia          : C-PCM and meta-GGA Hessian, CC/C-PCM, Gaussian charge scheme
   Yang Guo               : DLPNO-NEVPT2, F12-NEVPT2, CIM, IAO-localization
   Andreas Hansen         : Spin unrestricted coupled pair/coupled cluster methods
   Benjamin Helmich-Paris : MC-RPA, TRAH-SCF, COSX integrals
   Lee Huntington         : MR-EOM, pCC
   Robert Izsak           : Overlap fitted RIJCOSX, COSX-SCS-MP3, EOM
   Marcus Kettner         : VPT2
   Christian Kollmar      : KDIIS, OOCD, Brueckner-CCSD(T), CCSD density, CASPT2, CASPT2-K
   Simone Kossmann        : Meta GGA functionals, TD-DFT gradient, OOMP2, MP2 Hessian
   Martin Krupicka        : Initial AUTO-CI
   Lucas Lang             : DCDCAS
   Marvin Lechner         : AUTO-CI (C++ implementation), FIC-MRCC
   Dagmar Lenk            : GEPOL surface, SMD
   Dimitrios Liakos       : Extrapolation schemes; Compound Job, initial MDCI parallelization
   Dimitrios Manganas     : Further ROCIS development; embedding schemes
   Dimitrios Pantazis     : SARC Basis sets
   Anastasios Papadopoulos: AUTO-CI, single reference methods and gradients
   Taras Petrenko         : DFT Hessian,TD-DFT gradient, ASA, ECA, R-Raman, ABS, FL, XAS/XES, NRVS
   Peter Pinski           : DLPNO-MP2, DLPNO-MP2 Gradient
   Christoph Reimann      : Effective Core Potentials
   Marius Retegan         : Local ZFS, SOC
   Christoph Riplinger    : Optimizer, TS searches, QM/MM, DLPNO-CCSD(T), (RO)-DLPNO pert. Triples
   Tobias Risthaus        : Range-separated hybrids, TD-DFT gradient, RPA, STAB
   Michael Roemelt        : Original ROCIS implementation
   Masaaki Saitow         : Open-shell DLPNO-CCSD energy and density
   Barbara Sandhoefer     : DKH picture change effects
   Avijit Sen             : IP-ROCIS
   Kantharuban Sivalingam : CASSCF convergence, NEVPT2, FIC-MRCI
   Bernardo de Souza      : ESD, SOC TD-DFT
   Georgi Stoychev        : AutoAux, RI-MP2 NMR, DLPNO-MP2 response
   Willem Van den Heuvel  : Paramagnetic NMR
   Boris Wezisla          : Elementary symmetry handling
   Frank Wennmohs         : Technical directorship


 We gratefully acknowledge several colleagues who have allowed us to
 interface, adapt or use parts of their codes:
   Stefan Grimme, W. Hujo, H. Kruse, P. Pracht,  : VdW corrections, initial TS optimization,
                  C. Bannwarth, S. Ehlert          DFT functionals, gCP, sTDA/sTD-DF
   Ed Valeev, F. Pavosevic, A. Kumar             : LibInt (2-el integral package), F12 methods
   Garnet Chan, S. Sharma, J. Yang, R. Olivares  : DMRG
   Ulf Ekstrom                                   : XCFun DFT Library
   Mihaly Kallay                                 : mrcc  (arbitrary order and MRCC methods)
   Jiri Pittner, Ondrej Demel                    : Mk-CCSD
   Frank Weinhold                                : gennbo (NPA and NBO analysis)
   Christopher J. Cramer and Donald G. Truhlar   : smd solvation model
   Lars Goerigk                                  : TD-DFT with DH, B97 family of functionals
   V. Asgeirsson, H. Jonsson                     : NEB implementation
   FAccTs GmbH                                   : IRC, NEB, NEB-TS, DLPNO-Multilevel, CI-OPT
                                                   MM, QMMM, 2- and 3-layer-ONIOM, Crystal-QMMM,
                                                   LR-CPCM, SF, NACMEs, symmetry and pop. for TD-DFT,
                                                   nearIR, NL-DFT gradient (VV10), updates on ESD,
                                                   ML-optimized integration grids
   S Lehtola, MJT Oliveira, MAL Marques          : LibXC Library
   Liviu Ungur et al                             : ANISO software


 Your calculation uses the libint2 library for the computation of 2-el integrals
 For citations please refer to: http://libint.valeyev.net

 Your ORCA version has been built with support for libXC version: 5.1.0
 For citations please refer to: https://tddft.org/programs/libxc/

 This ORCA versions uses:
   CBLAS   interface :  Fast vector & matrix operations
   LAPACKE interface :  Fast linear algebra routines
   SCALAPACK package :  Parallel linear algebra routines
   Shared memory     :  Shared parallel matrices
   BLAS/LAPACK       :  OpenBLAS 0.3.15  USE64BITINT DYNAMIC_ARCH NO_AFFINITY SkylakeX SINGLE_THREADED
        Core in use  :  SkylakeX
   Copyright (c) 2011-2014, The OpenBLAS Project


================================================================================

----- Orbital basis set information -----
Your calculation utilizes the basis: aug-cc-pVDZ 
    H, B-Ne : Obtained from the ccRepo (grant-hill.group.shef.ac.uk/ccrepo) Feb. 2017
              R. A. Kendall, T. H. Dunning, Jr., R. J. Harrison, J. Chem. Phys. 96, 6796 (1992)
         He : Obtained from the ccRepo (grant-hill.group.shef.ac.uk/ccrepo) Feb. 2017
              D. E. Woon, T. H. Dunning, Jr., J. Chem. Phys. 100, 2975 (1994)
  Li-Be, Na : Obtained from the ccRepo (grant-hill.group.shef.ac.uk/ccrepo) Feb. 2017
              B. P. Prascher, D. E. Woon, K. A. Peterson, T. H. Dunning, Jr., A. K. Wilson, Theor. Chem. Acc. 128, 69 (2011)
         Mg : Obtained from the Peterson Research Group Website (tyr0.chem.wsu.edu/~kipeters) Feb. 2017
              B. P. Prascher, D. E. Woon, K. A. Peterson, T. H. Dunning, Jr., A. K. Wilson, Theor. Chem. Acc. 128, 69 (2011)
      Al-Ar : Obtained from the ccRepo (grant-hill.group.shef.ac.uk/ccrepo) Feb. 2017
              D. E. Woon, T. H. Dunning, Jr., J. Chem. Phys. 98, 1358 (1993)
      Sc-Zn : Obtained from the ccRepo (grant-hill.group.shef.ac.uk/ccrepo) Feb. 2017
              N. B. Balabanov, K. A. Peterson, J. Chem. Phys. 123, 064107 (2005)
              N. B. Balabanov, K. A. Peterson, J. Chem. Phys. 125, 074110 (2006)
      Ga-Kr : Obtained from the ccRepo (grant-hill.group.shef.ac.uk/ccrepo) Feb. 2017
              A. K. Wilson, D. E. Woon, K. A. Peterson, T. H. Dunning, Jr., J. Chem. Phys. 110, 7667 (1999)

================================================================================
                                        WARNINGS
                       Please study these warnings very carefully!
================================================================================


INFO   : the flag for use of the SHARK integral package has been found!

================================================================================
                                       INPUT FILE
================================================================================
NAME = piridine_efield_y_-0.002.inp
|  1> ! hf aug-cc-pVDZ
|  2> ! MiniPrint VeryTightSCF
|  3> %pal
|  4>  nprocs 16
|  5> end
|  6> %MaxCore 2000
|  7> %scf
|  8>  maxiter=200
|  9>  efield 0.0 , -0.002 , 0.0
| 10> end
| 11> %elprop
| 12>   polar 1
| 13> end
| 14> * xyz 0 1
| 15> C       -0.180226841      0.360945118     -1.120304970
| 16> C       -0.180226841      1.559292118     -0.407860970
| 17> C       -0.180226841      1.503191118      0.986935030
| 18> N       -0.180226841      0.360945118      1.29018350
| 19> C       -0.180226841     -0.781300882      0.986935030
| 20> C       -0.180226841     -0.837401882     -0.407860970
| 21> H       -0.180226841      0.360945118     -2.206546970
| 22> H       -0.180226841      2.517950118     -0.917077970
| 23> H       -0.180226841      2.421289118      1.572099030
| 24> H       -0.180226841     -1.699398882      1.572099030
| 25> H       -0.180226841     -1.796059882     -0.917077970
| 26> *
| 27> 
| 28>                          ****END OF INPUT****
================================================================================

                       ****************************
                       * Single Point Calculation *
                       ****************************

---------------------------------
CARTESIAN COORDINATES (ANGSTROEM)
---------------------------------
  C     -0.180227    0.360945   -1.120305
  C     -0.180227    1.559292   -0.407861
  C     -0.180227    1.503191    0.986935
  N     -0.180227    0.360945    1.290183
  C     -0.180227   -0.781301    0.986935
  C     -0.180227   -0.837402   -0.407861
  H     -0.180227    0.360945   -2.206547
  H     -0.180227    2.517950   -0.917078
  H     -0.180227    2.421289    1.572099
  H     -0.180227   -1.699399    1.572099
  H     -0.180227   -1.796060   -0.917078

----------------------------
CARTESIAN COORDINATES (A.U.)
----------------------------
  NO LB      ZA    FRAG     MASS         X           Y           Z
   0 C     6.0000    0    12.011   -0.340579    0.682087   -2.117070
   1 C     6.0000    0    12.011   -0.340579    2.946635   -0.770746
   2 C     6.0000    0    12.011   -0.340579    2.840620    1.865037
   3 N     7.0000    0    14.007   -0.340579    0.682087    2.438093
   4 C     6.0000    0    12.011   -0.340579   -1.476445    1.865037
   5 C     6.0000    0    12.011   -0.340579   -1.582460   -0.770746
   6 H     1.0000    0     1.008   -0.340579    0.682087   -4.169769
   7 H     1.0000    0     1.008   -0.340579    4.758236   -1.733026
   8 H     1.0000    0     1.008   -0.340579    4.575573    2.970837
   9 H     1.0000    0     1.008   -0.340579   -3.211398    2.970837
  10 H     1.0000    0     1.008   -0.340579   -3.394061   -1.733026



           ************************************************************
           *        Program running with 16 parallel MPI-processes    *
           *              working on a common directory               *
           ************************************************************
------------------------------------------------------------------------------
                   ___                                                        
                  /   \      - P O W E R E D   B Y -                         
                 /     \                                                     
                 |  |  |   _    _      __       _____    __    __             
                 |  |  |  | |  | |    /  \     |  _  \  |  |  /  |          
                  \  \/   | |  | |   /    \    | | | |  |  | /  /          
                 / \  \   | |__| |  /  /\  \   | |_| |  |  |/  /          
                |  |  |   |  __  | /  /__\  \  |    /   |      \           
                |  |  |   | |  | | |   __   |  |    \   |  |\   \          
                \     /   | |  | | |  |  |  |  | |\  \  |  | \   \       
                 \___/    |_|  |_| |__|  |__|  |_| \__\ |__|  \__/        
                                                                              
                      - O R C A' S   B I G   F R I E N D -                    
                                      &                                       
                       - I N T E G R A L  F E E D E R -                       
                                                                              
 v1 FN, 2020, v2 2021                                                         
------------------------------------------------------------------------------


Reading SHARK input file piridine_efield_y_-0.002.SHARKINP.tmp ... ok
----------------------
SHARK INTEGRAL PACKAGE
----------------------

Number of atoms                             ...     11
Number of basis functions                   ...    219
Number of shells                            ...    115
Maximum angular momentum                    ...      2
Integral batch strategy                     ... SHARK/LIBINT Hybrid
RI-J (if used) integral strategy            ... SPLIT-RIJ (Revised 2003 algorithm where possible)
Printlevel                                  ...      1
Contraction scheme used                     ... PARTIAL GENERAL contraction
Coulomb Range Separation                    ... NOT USED
Exchange Range Separation                   ... NOT USED
Finite Nucleus Model                        ... NOT USED
Auxiliary Coulomb fitting basis             ... NOT available
Auxiliary J/K fitting basis                 ... NOT available
Auxiliary Correlation fitting basis         ... NOT available
Auxiliary 'external' fitting basis          ... NOT available
Integral threshold                          ...     1.000000e-12
Primitive cut-off                           ...     1.000000e-14
Primitive pair pre-selection threshold      ...     1.000000e-14

Calculating pre-screening integrals         ... done (  0.0 sec) Dimension = 115
Calculating pre-screening integrals (ORCA)  ... done (  0.1 sec) Dimension = 79
Organizing shell pair data                  ... done (  0.0 sec)
Shell pair information
Total number of shell pairs                 ...      6670
Shell pairs after pre-screening             ...      6002
Total number of primitive shell pairs       ...      9486
Primitive shell pairs kept                  ...      8107
          la=0 lb=0:   2207 shell pairs
          la=1 lb=0:   2075 shell pairs
          la=1 lb=1:    406 shell pairs
          la=2 lb=0:    900 shell pairs
          la=2 lb=1:    336 shell pairs
          la=2 lb=2:     78 shell pairs

Calculating one electron integrals          ... done (  0.0 sec)
Calculating Nuclear repulsion               ... done (  0.0 sec) ENN=    214.850568283403 Eh

SHARK setup successfully completed in   0.2 seconds

Maximum memory used throughout the entire GTOINT-calculation: 15.5 MB

An Electric Field will be added: 0.000e+00 -2.000e-03 0.000e+00 au

  ... done adding electric field perturbation



           ************************************************************
           *        Program running with 16 parallel MPI-processes    *
           *              working on a common directory               *
           ************************************************************

Diagonalization of the overlap matrix:
Smallest eigenvalue                        ... 1.248e-05
Time for diagonalization                   ...    0.004 sec
Threshold for overlap eigenvalues          ... 1.000e-08
Number of eigenvalues below threshold      ... 0
Time for construction of square roots      ...    0.012 sec
Total time needed                          ...    0.017 sec

Time for model grid setup =    0.050 sec

Loading Hartree-Fock densities                     ... done
Calculating cut-offs                               ... done
Initializing the effective Hamiltonian             ... done
Setting up the integral package (SHARK)            ... done
Starting the Coulomb interaction                   ... done (   0.0 sec)
Reading the grid                                   ... done
Mapping shells                                     ... done
Starting the XC term evaluation                    ... done (   0.0 sec)
Transforming the Hamiltonian                       ... done (   0.0 sec)
Diagonalizing the Hamiltonian                      ... done (   0.0 sec)
Back transforming the eigenvectors                 ... done (   0.0 sec)
Now organizing SCF variables                       ... done
--------------
SCF ITERATIONS
--------------
ITER       Energy         Delta-E        Max-DP      RMS-DP      [F,P]     Damp
               ***  Starting incremental Fock matrix formation  ***
  0   -246.3408130202   0.000000000000 0.61914442  0.01387692  0.2816182 0.7000
  1   -246.4377736731  -0.096960652917 0.46833514  0.01032576  0.1778967 0.7000
                               ***Turning on DIIS***
  2   -246.4951302374  -0.057356564299 0.33173754  0.00717399  0.1034271 0.7000
  3   -247.1784849488  -0.683354711374 0.77888539  0.01640197  0.0606968 0.0000
  4   -246.5197214096   0.658763539216 0.02350750  0.00057805  0.0083923 0.0000
                      *** Initiating the SOSCF procedure ***
                           *** Shutting down DIIS ***
                      *** Re-Reading the Fockian *** 
                      *** Removing any level shift *** 
ITER      Energy       Delta-E        Grad      Rot      Max-DP    RMS-DP
  5   -246.60776158  -0.0880401721  0.001367  0.001367  0.017404  0.000379
               *** Restarting incremental Fock matrix formation ***
  6   -246.61231759  -0.0045560099  0.000513  0.001068  0.011498  0.000242
  7   -246.61233684  -0.0000192455  0.000296  0.001208  0.008354  0.000177
  8   -246.61234288  -0.0000060425  0.000092  0.000250  0.000935  0.000026
  9   -246.61234357  -0.0000006880  0.000091  0.000316  0.001227  0.000028
 10   -246.61234379  -0.0000002181  0.000019  0.000067  0.000301  0.000007
 11   -246.61234380  -0.0000000184  0.000008  0.000013  0.000065  0.000002
 12   -246.61234381  -0.0000000025  0.000002  0.000002  0.000024  0.000001
 13   -246.61234381  -0.0000000002  0.000001  0.000001  0.000006  0.000000
                  ***Gradient check signals convergence***
              ***Rediagonalizing the Fockian in SOSCF/NRSCF***

               *****************************************************
               *                     SUCCESS                       *
               *           SCF CONVERGED AFTER  14 CYCLES          *
               *****************************************************

Total Energy       :         -246.61234381 Eh           -6710.66304 eV
  Last Energy change         ...   -2.1885e-11  Tolerance :   1.0000e-09
  Last MAX-Density change    ...    3.5183e-06  Tolerance :   1.0000e-08
             **** THE GBW FILE WAS UPDATED (piridine_efield_y_-0.002.gbw) ****
             **** DENSITY piridine_efield_y_-0.002.scfp WAS UPDATED ****
             **** ENERGY FILE WAS UPDATED (piridine_efield_y_-0.002.en.tmp) ****
             **** THE GBW FILE WAS UPDATED (piridine_efield_y_-0.002.gbw) ****
             **** DENSITY piridine_efield_y_-0.002.scfp WAS UPDATED ****
----------------
ORBITAL ENERGIES
----------------

  NO   OCC          E(Eh)            E(eV) 
   0   2.0000     -15.528386      -422.5489 
   1   2.0000     -11.270763      -306.6931 
   2   2.0000     -11.267974      -306.6172 
   3   2.0000     -11.248620      -306.0905 
   4   2.0000     -11.242544      -305.9252 
   5   2.0000     -11.239745      -305.8490 
   6   2.0000      -1.341537       -36.5051 
   7   2.0000      -1.081920       -29.4405 
   8   2.0000      -1.075058       -29.2538 
   9   2.0000      -0.883907       -24.0523 
  10   2.0000      -0.842116       -22.9151 
  11   2.0000      -0.743940       -20.2436 
  12   2.0000      -0.700490       -19.0613 
  13   2.0000      -0.645011       -17.5516 
  14   2.0000      -0.601005       -16.3542 
  15   2.0000      -0.592547       -16.1240 
  16   2.0000      -0.573030       -15.5930 
  17   2.0000      -0.532821       -14.4988 
  18   2.0000      -0.384522       -10.4634 
  19   2.0000      -0.347819        -9.4646 
  20   2.0000      -0.329921        -8.9776 
  21   0.0000       0.026088         0.7099 
  22   0.0000       0.038928         1.0593 
  23   0.0000       0.047727         1.2987 
  24   0.0000       0.059009         1.6057 
  25   0.0000       0.071088         1.9344 
  26   0.0000       0.083853         2.2817 
  27   0.0000       0.103139         2.8065 
  28   0.0000       0.113767         3.0957 
  29   0.0000       0.116984         3.1833 
  30   0.0000       0.121981         3.3193 
  31   0.0000       0.129639         3.5277 
  32   0.0000       0.137349         3.7375 
  33   0.0000       0.139828         3.8049 
  34   0.0000       0.143439         3.9032 
  35   0.0000       0.151185         4.1140 
  36   0.0000       0.160389         4.3644 
  37   0.0000       0.163004         4.4356 
  38   0.0000       0.167611         4.5609 
  39   0.0000       0.178697         4.8626 
  40   0.0000       0.184368         5.0169 
  41   0.0000       0.192946         5.2503 
  42   0.0000       0.193985         5.2786 
  43   0.0000       0.201679         5.4880 
  44   0.0000       0.237244         6.4557 
  45   0.0000       0.277137         7.5413 
  46   0.0000       0.277296         7.5456 
  47   0.0000       0.293351         7.9825 
  48   0.0000       0.304504         8.2860 
  49   0.0000       0.307738         8.3740 
  50   0.0000       0.326673         8.8892 
  51   0.0000       0.330831         9.0024 
  52   0.0000       0.335656         9.1337 
  53   0.0000       0.357484         9.7276 
  54   0.0000       0.366849         9.9825 
  55   0.0000       0.368008        10.0140 
  56   0.0000       0.370504        10.0819 
  57   0.0000       0.380968        10.3667 
  58   0.0000       0.402433        10.9508 
  59   0.0000       0.428081        11.6487 
  60   0.0000       0.428535        11.6610 
  61   0.0000       0.432070        11.7572 
  62   0.0000       0.443766        12.0755 
  63   0.0000       0.452057        12.3011 
  64   0.0000       0.468448        12.7471 
  65   0.0000       0.498130        13.5548 
  66   0.0000       0.532022        14.4771 
  67   0.0000       0.547982        14.9113 
  68   0.0000       0.549865        14.9626 
  69   0.0000       0.562739        15.3129 
  70   0.0000       0.573901        15.6166 
  71   0.0000       0.576336        15.6829 
  72   0.0000       0.596836        16.2407 
  73   0.0000       0.605223        16.4690 
  74   0.0000       0.617371        16.7995 
  75   0.0000       0.621049        16.8996 
  76   0.0000       0.649552        17.6752 
  77   0.0000       0.659374        17.9425 
  78   0.0000       0.673672        18.3315 
  79   0.0000       0.674774        18.3615 
  80   0.0000       0.676509        18.4088 
  81   0.0000       0.689379        18.7589 
  82   0.0000       0.689794        18.7703 
  83   0.0000       0.691933        18.8285 
  84   0.0000       0.710294        19.3281 
  85   0.0000       0.727728        19.8025 
  86   0.0000       0.728682        19.8284 
  87   0.0000       0.729352        19.8467 
  88   0.0000       0.756436        20.5837 
  89   0.0000       0.762220        20.7410 
  90   0.0000       0.809760        22.0347 
  91   0.0000       0.816253        22.2114 
  92   0.0000       0.840493        22.8710 
  93   0.0000       0.848813        23.0974 
  94   0.0000       0.867082        23.5945 
  95   0.0000       0.874043        23.7839 
  96   0.0000       0.882443        24.0125 
  97   0.0000       0.905541        24.6410 
  98   0.0000       0.911726        24.8093 
  99   0.0000       0.919449        25.0195 
 100   0.0000       0.936648        25.4875 
 101   0.0000       0.967097        26.3160 
 102   0.0000       0.984005        26.7761 
 103   0.0000       1.006939        27.4002 
 104   0.0000       1.018199        27.7066 
 105   0.0000       1.044651        28.4264 
 106   0.0000       1.089914        29.6581 
 107   0.0000       1.104049        30.0427 
 108   0.0000       1.112150        30.2631 
 109   0.0000       1.113699        30.3053 
 110   0.0000       1.132355        30.8129 
 111   0.0000       1.152298        31.3556 
 112   0.0000       1.180621        32.1263 
 113   0.0000       1.243140        33.8276 
 114   0.0000       1.345784        36.6207 
 115   0.0000       1.362667        37.0800 
 116   0.0000       1.371302        37.3150 
 117   0.0000       1.401332        38.1322 
 118   0.0000       1.403023        38.1782 
 119   0.0000       1.470282        40.0084 
 120   0.0000       1.509118        41.0652 
 121   0.0000       1.512100        41.1463 
 122   0.0000       1.520880        41.3853 
 123   0.0000       1.524027        41.4709 
 124   0.0000       1.596564        43.4447 
 125   0.0000       1.604487        43.6603 
 126   0.0000       1.609252        43.7900 
 127   0.0000       1.630187        44.3596 
 128   0.0000       1.664870        45.3034 
 129   0.0000       1.689989        45.9869 
 130   0.0000       1.690485        46.0004 
 131   0.0000       1.694675        46.1145 
 132   0.0000       1.714064        46.6421 
 133   0.0000       1.747008        47.5385 
 134   0.0000       1.814759        49.3821 
 135   0.0000       1.819011        49.4978 
 136   0.0000       1.847591        50.2755 
 137   0.0000       1.855315        50.4857 
 138   0.0000       1.893863        51.5346 
 139   0.0000       1.914510        52.0965 
 140   0.0000       1.946594        52.9695 
 141   0.0000       1.963328        53.4249 
 142   0.0000       2.000266        54.4300 
 143   0.0000       2.017330        54.8943 
 144   0.0000       2.064396        56.1751 
 145   0.0000       2.109853        57.4120 
 146   0.0000       2.119855        57.6842 
 147   0.0000       2.147738        58.4429 
 148   0.0000       2.162486        58.8442 
 149   0.0000       2.167759        58.9877 
 150   0.0000       2.225219        60.5513 
 151   0.0000       2.249768        61.2193 
 152   0.0000       2.252768        61.3009 
 153   0.0000       2.281435        62.0810 
 154   0.0000       2.325269        63.2738 
 155   0.0000       2.340845        63.6976 
 156   0.0000       2.345830        63.8333 
 157   0.0000       2.362704        64.2924 
 158   0.0000       2.419530        65.8388 
 159   0.0000       2.439047        66.3699 
 160   0.0000       2.469252        67.1918 
 161   0.0000       2.519801        68.5673 
 162   0.0000       2.559299        69.6421 
 163   0.0000       2.590664        70.4956 
 164   0.0000       2.639804        71.8327 
 165   0.0000       2.752820        74.9080 
 166   0.0000       2.824537        76.8596 
 167   0.0000       2.837898        77.2231 
 168   0.0000       2.846708        77.4629 
 169   0.0000       2.914508        79.3078 
 170   0.0000       2.936696        79.9116 
 171   0.0000       2.953926        80.3804 
 172   0.0000       2.985318        81.2346 
 173   0.0000       3.105445        84.5034 
 174   0.0000       3.140640        85.4612 
 175   0.0000       3.196693        86.9864 
 176   0.0000       3.310004        90.0698 
 177   0.0000       3.456494        94.0560 
 178   0.0000       3.505492        95.3893 
 179   0.0000       3.609988        98.2328 
 180   0.0000       3.946622       107.3930 
 181   0.0000       3.966628       107.9374 
 182   0.0000       4.506628       122.6316 
Total SCF time: 0 days 0 hours 0 min 10 sec 

Maximum memory used throughout the entire SCF-calculation: 229.7 MB

-------------------------   --------------------
FINAL SINGLE POINT ENERGY      -246.612343806810
-------------------------   --------------------


                            ***************************************
                            *     ORCA property calculations      *
                            ***************************************

                                    ---------------------
                                    Active property flags
                                    ---------------------
   (+) Dipole Moment
   (+) Polarizability


------------------------------------------------------------------------------
                       ORCA ELECTRIC PROPERTIES CALCULATION
------------------------------------------------------------------------------

Dipole Moment Calculation                       ... on
Quadrupole Moment Calculation                   ... off
Polarizability Calculation                      ... Analytic (CP-SCF)
GBWName                                         ... piridine_efield_y_-0.002.gbw
Electron density                                ... piridine_efield_y_-0.002.scfp
The origin for moment calculation is the CENTER OF MASS  = (-0.340579,  0.682087  0.420996)

-------------
DIPOLE MOMENT
-------------
                                X             Y             Z
Electronic contribution:     -0.00000      -0.15977       1.47727
Nuclear contribution   :      0.00000      -0.00000      -1.88024
                        -----------------------------------------
Total Dipole Moment    :     -0.00000      -0.15977      -0.40297
                        -----------------------------------------
Magnitude (a.u.)       :      0.43349
Magnitude (Debye)      :      1.10185



--------------------
Rotational spectrum 
--------------------
 
Rotational constants in cm-1:     0.229528     0.201222     0.107222 
Rotational constants in MHz :  6881.073070  6032.486698  3214.449192 

 Dipole components along the rotational axes: 
x,y,z [a.u.] :    -0.159771    -0.402974     0.000000 
x,y,z [Debye]:    -0.406107    -1.024278     0.000000 

 
Transforming and storing MO dipole integrals   ... done

                ... starting polarizability calculation

The origin for moment calculation is the CENTER OF MASS  = (-0.340579,  0.682087  0.420996)
Opening the Dipole integral file               ... (piridine_efield_y_-0.002.dmo.tmp) done
Reading Dipole-MO integrals                    ... done
Solving CP-SCF equations                       ... 

           ************************************************************
           *        Program running with 16 parallel MPI-processes    *
           *              working on a common directory               *
           ************************************************************

------------------------------------------------------------------------------
                           ORCA CP-SCF CALCULATION
------------------------------------------------------------------------------

Input orbitals are from        ... piridine_efield_y_-0.002.gbw
Input Perturbation             ... piridine_efield_y_-0.002.cpv.tmp
Wavefunction output            ... piridine_efield_y_-0.002.cpu.tmp
Perturbation mode              ... Real perturbation (singlet)
Solver                         ... POPLE
Max. number of iterations      ... 64
Convergence tolerance          ... 3.000e-05
Integral handling              ... Direct
Number of perturbations        ... 3
Number of operators            ... 1
Orbital ranges used for CP-SCF:
 Operator 0:  Orbitals   0... 20  to  21...182
Variables per perturbation     ... 3402
Memory available               ... 1993.8 MB
Memory needed per perturbation ...   1.0 MB
Perturbations treated per batch... 3
Number of batches              ... 1
     CP-SCF ITERATION   0:   2.0813e+00 (   1.2 sec   0/  3 done)
     CP-SCF ITERATION   1:   4.1018e-01 (   1.2 sec   0/  3 done)
     CP-SCF ITERATION   2:   1.2143e-01 (   1.2 sec   0/  3 done)
     CP-SCF ITERATION   3:   5.3653e-02 (   1.2 sec   0/  3 done)
     CP-SCF ITERATION   4:   2.1202e-02 (   1.2 sec   0/  3 done)
     CP-SCF ITERATION   5:   9.5641e-03 (   1.2 sec   0/  3 done)
     CP-SCF ITERATION   6:   2.7440e-03 (   1.2 sec   0/  3 done)
     CP-SCF ITERATION   7:   5.9272e-04 (   1.2 sec   1/  3 done)
     CP-SCF ITERATION   8:   1.7605e-04 (   1.0 sec   1/  3 done)
     CP-SCF ITERATION   9:   5.9506e-05 (   1.0 sec   1/  3 done)
     CP-SCF ITERATION  10:   1.6758e-05 (   1.0 sec   3/  3 done)
                    *** THE CP-SCF HAS CONVERGED ***
done
Reading CP-SCF coefficients                    ... done
Doing the polarizability tensor                ... done
Cleaning up                                    ... done

-------------------------
THE POLARIZABILITY TENSOR
-------------------------

The raw cartesian tensor (atomic units):
   39.80765      0.00000      0.00000  
    0.00000     79.91753      0.06214  
    0.00000      0.06214     65.71042  
diagonalized tensor: 
   39.80765     65.71015     79.91780  

    1.00000     -0.00000      0.00000  
   -0.00000      0.00437      0.99999  
   -0.00000     -0.99999      0.00437  

Isotropic polarizability :  61.81186


Timings for individual modules:

Sum of individual times         ...       30.869 sec (=   0.514 min)
GTO integral calculation        ...        2.834 sec (=   0.047 min)   9.2 %
SCF iterations                  ...       12.805 sec (=   0.213 min)  41.5 %
Solution of CP-SCF eqns.        ...       15.230 sec (=   0.254 min)  49.3 %
                             ****ORCA TERMINATED NORMALLY****
TOTAL RUN TIME: 0 days 0 hours 0 minutes 34 seconds 15 msec
