
                                 *****************
                                 * O   R   C   A *
                                 *****************

                                            #,                                       
                                            ###                                      
                                            ####                                     
                                            #####                                    
                                            ######                                   
                                           ########,                                 
                                     ,,################,,,,,                         
                               ,,#################################,,                 
                          ,,##########################################,,             
                       ,#########################################, ''#####,          
                    ,#############################################,,   '####,        
                  ,##################################################,,,,####,       
                ,###########''''           ''''###############################       
              ,#####''   ,,,,##########,,,,          '''####'''          '####       
            ,##' ,,,,###########################,,,                        '##       
           ' ,,###''''                  '''############,,,                           
         ,,##''                                '''############,,,,        ,,,,,,###''
      ,#''                                            '''#######################'''  
     '                                                          ''''####''''         
             ,#######,   #######,   ,#######,      ##                                
            ,#'     '#,  ##    ##  ,#'     '#,    #''#        ######   ,####,        
            ##       ##  ##   ,#'  ##            #'  '#       #        #'  '#        
            ##       ##  #######   ##           ,######,      #####,   #    #        
            '#,     ,#'  ##    ##  '#,     ,#' ,#      #,         ##   #,  ,#        
             '#######'   ##     ##  '#######'  #'      '#     #####' # '####'        



                  #######################################################
                  #                        -***-                        #
                  #          Department of theory and spectroscopy      #
                  #    Directorship and core code : Frank Neese         #
                  #        Max Planck Institute fuer Kohlenforschung    #
                  #                Kaiser Wilhelm Platz 1               #
                  #                 D-45470 Muelheim/Ruhr               #
                  #                      Germany                        #
                  #                                                     #
                  #                  All rights reserved                #
                  #                        -***-                        #
                  #######################################################


                         Program Version 5.0.4 -  RELEASE  -


 With contributions from (in alphabetic order):
   Daniel Aravena         : Magnetic Suceptibility
   Michael Atanasov       : Ab Initio Ligand Field Theory (pilot matlab implementation)
   Alexander A. Auer      : GIAO ZORA, VPT2 properties, NMR spectrum
   Ute Becker             : Parallelization
   Giovanni Bistoni       : ED, misc. LED, open-shell LED, HFLD
   Martin Brehm           : Molecular dynamics
   Dmytro Bykov           : SCF Hessian
   Vijay G. Chilkuri      : MRCI spin determinant printing, contributions to CSF-ICE
   Dipayan Datta          : RHF DLPNO-CCSD density
   Achintya Kumar Dutta   : EOM-CC, STEOM-CC
   Dmitry Ganyushin       : Spin-Orbit,Spin-Spin,Magnetic field MRCI
   Miquel Garcia          : C-PCM and meta-GGA Hessian, CC/C-PCM, Gaussian charge scheme
   Yang Guo               : DLPNO-NEVPT2, F12-NEVPT2, CIM, IAO-localization
   Andreas Hansen         : Spin unrestricted coupled pair/coupled cluster methods
   Benjamin Helmich-Paris : MC-RPA, TRAH-SCF, COSX integrals
   Lee Huntington         : MR-EOM, pCC
   Robert Izsak           : Overlap fitted RIJCOSX, COSX-SCS-MP3, EOM
   Marcus Kettner         : VPT2
   Christian Kollmar      : KDIIS, OOCD, Brueckner-CCSD(T), CCSD density, CASPT2, CASPT2-K
   Simone Kossmann        : Meta GGA functionals, TD-DFT gradient, OOMP2, MP2 Hessian
   Martin Krupicka        : Initial AUTO-CI
   Lucas Lang             : DCDCAS
   Marvin Lechner         : AUTO-CI (C++ implementation), FIC-MRCC
   Dagmar Lenk            : GEPOL surface, SMD
   Dimitrios Liakos       : Extrapolation schemes; Compound Job, initial MDCI parallelization
   Dimitrios Manganas     : Further ROCIS development; embedding schemes
   Dimitrios Pantazis     : SARC Basis sets
   Anastasios Papadopoulos: AUTO-CI, single reference methods and gradients
   Taras Petrenko         : DFT Hessian,TD-DFT gradient, ASA, ECA, R-Raman, ABS, FL, XAS/XES, NRVS
   Peter Pinski           : DLPNO-MP2, DLPNO-MP2 Gradient
   Christoph Reimann      : Effective Core Potentials
   Marius Retegan         : Local ZFS, SOC
   Christoph Riplinger    : Optimizer, TS searches, QM/MM, DLPNO-CCSD(T), (RO)-DLPNO pert. Triples
   Tobias Risthaus        : Range-separated hybrids, TD-DFT gradient, RPA, STAB
   Michael Roemelt        : Original ROCIS implementation
   Masaaki Saitow         : Open-shell DLPNO-CCSD energy and density
   Barbara Sandhoefer     : DKH picture change effects
   Avijit Sen             : IP-ROCIS
   Kantharuban Sivalingam : CASSCF convergence, NEVPT2, FIC-MRCI
   Bernardo de Souza      : ESD, SOC TD-DFT
   Georgi Stoychev        : AutoAux, RI-MP2 NMR, DLPNO-MP2 response
   Willem Van den Heuvel  : Paramagnetic NMR
   Boris Wezisla          : Elementary symmetry handling
   Frank Wennmohs         : Technical directorship


 We gratefully acknowledge several colleagues who have allowed us to
 interface, adapt or use parts of their codes:
   Stefan Grimme, W. Hujo, H. Kruse, P. Pracht,  : VdW corrections, initial TS optimization,
                  C. Bannwarth, S. Ehlert          DFT functionals, gCP, sTDA/sTD-DF
   Ed Valeev, F. Pavosevic, A. Kumar             : LibInt (2-el integral package), F12 methods
   Garnet Chan, S. Sharma, J. Yang, R. Olivares  : DMRG
   Ulf Ekstrom                                   : XCFun DFT Library
   Mihaly Kallay                                 : mrcc  (arbitrary order and MRCC methods)
   Jiri Pittner, Ondrej Demel                    : Mk-CCSD
   Frank Weinhold                                : gennbo (NPA and NBO analysis)
   Christopher J. Cramer and Donald G. Truhlar   : smd solvation model
   Lars Goerigk                                  : TD-DFT with DH, B97 family of functionals
   V. Asgeirsson, H. Jonsson                     : NEB implementation
   FAccTs GmbH                                   : IRC, NEB, NEB-TS, DLPNO-Multilevel, CI-OPT
                                                   MM, QMMM, 2- and 3-layer-ONIOM, Crystal-QMMM,
                                                   LR-CPCM, SF, NACMEs, symmetry and pop. for TD-DFT,
                                                   nearIR, NL-DFT gradient (VV10), updates on ESD,
                                                   ML-optimized integration grids
   S Lehtola, MJT Oliveira, MAL Marques          : LibXC Library
   Liviu Ungur et al                             : ANISO software


 Your calculation uses the libint2 library for the computation of 2-el integrals
 For citations please refer to: http://libint.valeyev.net

 Your ORCA version has been built with support for libXC version: 5.1.0
 For citations please refer to: https://tddft.org/programs/libxc/

 This ORCA versions uses:
   CBLAS   interface :  Fast vector & matrix operations
   LAPACKE interface :  Fast linear algebra routines
   SCALAPACK package :  Parallel linear algebra routines
   Shared memory     :  Shared parallel matrices
   BLAS/LAPACK       :  OpenBLAS 0.3.15  USE64BITINT DYNAMIC_ARCH NO_AFFINITY SkylakeX SINGLE_THREADED
        Core in use  :  SkylakeX
   Copyright (c) 2011-2014, The OpenBLAS Project


================================================================================

----- Orbital basis set information -----
Your calculation utilizes the basis: aug-cc-pVDZ 
    H, B-Ne : Obtained from the ccRepo (grant-hill.group.shef.ac.uk/ccrepo) Feb. 2017
              R. A. Kendall, T. H. Dunning, Jr., R. J. Harrison, J. Chem. Phys. 96, 6796 (1992)
         He : Obtained from the ccRepo (grant-hill.group.shef.ac.uk/ccrepo) Feb. 2017
              D. E. Woon, T. H. Dunning, Jr., J. Chem. Phys. 100, 2975 (1994)
  Li-Be, Na : Obtained from the ccRepo (grant-hill.group.shef.ac.uk/ccrepo) Feb. 2017
              B. P. Prascher, D. E. Woon, K. A. Peterson, T. H. Dunning, Jr., A. K. Wilson, Theor. Chem. Acc. 128, 69 (2011)
         Mg : Obtained from the Peterson Research Group Website (tyr0.chem.wsu.edu/~kipeters) Feb. 2017
              B. P. Prascher, D. E. Woon, K. A. Peterson, T. H. Dunning, Jr., A. K. Wilson, Theor. Chem. Acc. 128, 69 (2011)
      Al-Ar : Obtained from the ccRepo (grant-hill.group.shef.ac.uk/ccrepo) Feb. 2017
              D. E. Woon, T. H. Dunning, Jr., J. Chem. Phys. 98, 1358 (1993)
      Sc-Zn : Obtained from the ccRepo (grant-hill.group.shef.ac.uk/ccrepo) Feb. 2017
              N. B. Balabanov, K. A. Peterson, J. Chem. Phys. 123, 064107 (2005)
              N. B. Balabanov, K. A. Peterson, J. Chem. Phys. 125, 074110 (2006)
      Ga-Kr : Obtained from the ccRepo (grant-hill.group.shef.ac.uk/ccrepo) Feb. 2017
              A. K. Wilson, D. E. Woon, K. A. Peterson, T. H. Dunning, Jr., J. Chem. Phys. 110, 7667 (1999)

================================================================================
                                        WARNINGS
                       Please study these warnings very carefully!
================================================================================


INFO   : the flag for use of the SHARK integral package has been found!

================================================================================
                                       INPUT FILE
================================================================================
NAME = piridine_efield_z_0.004.inp
|  1> ! hf aug-cc-pVDZ
|  2> ! MiniPrint VeryTightSCF
|  3> %pal
|  4>  nprocs 16
|  5> end
|  6> %MaxCore 2000
|  7> %scf
|  8>  maxiter=200
|  9>  efield 0.0 , 0.0 , 0.004
| 10> end
| 11> %elprop
| 12>   polar 1
| 13> end
| 14> * xyz 0 1
| 15> C       -0.180226841      0.360945118     -1.120304970
| 16> C       -0.180226841      1.559292118     -0.407860970
| 17> C       -0.180226841      1.503191118      0.986935030
| 18> N       -0.180226841      0.360945118      1.29018350
| 19> C       -0.180226841     -0.781300882      0.986935030
| 20> C       -0.180226841     -0.837401882     -0.407860970
| 21> H       -0.180226841      0.360945118     -2.206546970
| 22> H       -0.180226841      2.517950118     -0.917077970
| 23> H       -0.180226841      2.421289118      1.572099030
| 24> H       -0.180226841     -1.699398882      1.572099030
| 25> H       -0.180226841     -1.796059882     -0.917077970
| 26> *
| 27> 
| 28>                          ****END OF INPUT****
================================================================================

                       ****************************
                       * Single Point Calculation *
                       ****************************

---------------------------------
CARTESIAN COORDINATES (ANGSTROEM)
---------------------------------
  C     -0.180227    0.360945   -1.120305
  C     -0.180227    1.559292   -0.407861
  C     -0.180227    1.503191    0.986935
  N     -0.180227    0.360945    1.290183
  C     -0.180227   -0.781301    0.986935
  C     -0.180227   -0.837402   -0.407861
  H     -0.180227    0.360945   -2.206547
  H     -0.180227    2.517950   -0.917078
  H     -0.180227    2.421289    1.572099
  H     -0.180227   -1.699399    1.572099
  H     -0.180227   -1.796060   -0.917078

----------------------------
CARTESIAN COORDINATES (A.U.)
----------------------------
  NO LB      ZA    FRAG     MASS         X           Y           Z
   0 C     6.0000    0    12.011   -0.340579    0.682087   -2.117070
   1 C     6.0000    0    12.011   -0.340579    2.946635   -0.770746
   2 C     6.0000    0    12.011   -0.340579    2.840620    1.865037
   3 N     7.0000    0    14.007   -0.340579    0.682087    2.438093
   4 C     6.0000    0    12.011   -0.340579   -1.476445    1.865037
   5 C     6.0000    0    12.011   -0.340579   -1.582460   -0.770746
   6 H     1.0000    0     1.008   -0.340579    0.682087   -4.169769
   7 H     1.0000    0     1.008   -0.340579    4.758236   -1.733026
   8 H     1.0000    0     1.008   -0.340579    4.575573    2.970837
   9 H     1.0000    0     1.008   -0.340579   -3.211398    2.970837
  10 H     1.0000    0     1.008   -0.340579   -3.394061   -1.733026



           ************************************************************
           *        Program running with 16 parallel MPI-processes    *
           *              working on a common directory               *
           ************************************************************
------------------------------------------------------------------------------
                   ___                                                        
                  /   \      - P O W E R E D   B Y -                         
                 /     \                                                     
                 |  |  |   _    _      __       _____    __    __             
                 |  |  |  | |  | |    /  \     |  _  \  |  |  /  |          
                  \  \/   | |  | |   /    \    | | | |  |  | /  /          
                 / \  \   | |__| |  /  /\  \   | |_| |  |  |/  /          
                |  |  |   |  __  | /  /__\  \  |    /   |      \           
                |  |  |   | |  | | |   __   |  |    \   |  |\   \          
                \     /   | |  | | |  |  |  |  | |\  \  |  | \   \       
                 \___/    |_|  |_| |__|  |__|  |_| \__\ |__|  \__/        
                                                                              
                      - O R C A' S   B I G   F R I E N D -                    
                                      &                                       
                       - I N T E G R A L  F E E D E R -                       
                                                                              
 v1 FN, 2020, v2 2021                                                         
------------------------------------------------------------------------------


Reading SHARK input file piridine_efield_z_0.004.SHARKINP.tmp ... ok
----------------------
SHARK INTEGRAL PACKAGE
----------------------

Number of atoms                             ...     11
Number of basis functions                   ...    219
Number of shells                            ...    115
Maximum angular momentum                    ...      2
Integral batch strategy                     ... SHARK/LIBINT Hybrid
RI-J (if used) integral strategy            ... SPLIT-RIJ (Revised 2003 algorithm where possible)
Printlevel                                  ...      1
Contraction scheme used                     ... PARTIAL GENERAL contraction
Coulomb Range Separation                    ... NOT USED
Exchange Range Separation                   ... NOT USED
Finite Nucleus Model                        ... NOT USED
Auxiliary Coulomb fitting basis             ... NOT available
Auxiliary J/K fitting basis                 ... NOT available
Auxiliary Correlation fitting basis         ... NOT available
Auxiliary 'external' fitting basis          ... NOT available
Integral threshold                          ...     1.000000e-12
Primitive cut-off                           ...     1.000000e-14
Primitive pair pre-selection threshold      ...     1.000000e-14

Calculating pre-screening integrals         ... done (  0.0 sec) Dimension = 115
Calculating pre-screening integrals (ORCA)  ... done (  0.1 sec) Dimension = 79
Organizing shell pair data                  ... done (  0.0 sec)
Shell pair information
Total number of shell pairs                 ...      6670
Shell pairs after pre-screening             ...      6002
Total number of primitive shell pairs       ...      9486
Primitive shell pairs kept                  ...      8107
          la=0 lb=0:   2207 shell pairs
          la=1 lb=0:   2075 shell pairs
          la=1 lb=1:    406 shell pairs
          la=2 lb=0:    900 shell pairs
          la=2 lb=1:    336 shell pairs
          la=2 lb=2:     78 shell pairs

Calculating one electron integrals          ... done (  0.0 sec)
Calculating Nuclear repulsion               ... done (  0.0 sec) ENN=    214.850568283403 Eh

SHARK setup successfully completed in   0.3 seconds

Maximum memory used throughout the entire GTOINT-calculation: 15.5 MB

An Electric Field will be added: 0.000e+00 0.000e+00 4.000e-03 au

  ... done adding electric field perturbation



           ************************************************************
           *        Program running with 16 parallel MPI-processes    *
           *              working on a common directory               *
           ************************************************************

Diagonalization of the overlap matrix:
Smallest eigenvalue                        ... 1.248e-05
Time for diagonalization                   ...    0.004 sec
Threshold for overlap eigenvalues          ... 1.000e-08
Number of eigenvalues below threshold      ... 0
Time for construction of square roots      ...    0.011 sec
Total time needed                          ...    0.016 sec

Time for model grid setup =    0.050 sec

Loading Hartree-Fock densities                     ... done
Calculating cut-offs                               ... done
Initializing the effective Hamiltonian             ... done
Setting up the integral package (SHARK)            ... done
Starting the Coulomb interaction                   ... done (   0.0 sec)
Reading the grid                                   ... done
Mapping shells                                     ... done
Starting the XC term evaluation                    ... done (   0.0 sec)
Transforming the Hamiltonian                       ... done (   0.0 sec)
Diagonalizing the Hamiltonian                      ... done (   0.0 sec)
Back transforming the eigenvectors                 ... done (   0.0 sec)
Now organizing SCF variables                       ... done
--------------
SCF ITERATIONS
--------------
ITER       Energy         Delta-E        Max-DP      RMS-DP      [F,P]     Damp
               ***  Starting incremental Fock matrix formation  ***
  0   -246.3450386918   0.000000000000 0.60915190  0.01378254  0.2748715 0.7000
  1   -246.4396020516  -0.094563359879 0.46272513  0.01027128  0.1747754 0.7000
                               ***Turning on DIIS***
  2   -246.4958504128  -0.056248361203 0.32942638  0.00714935  0.1026492 0.7000
  3   -247.1803358348  -0.684485421922 0.77950280  0.01638900  0.0609120 0.0000
  4   -246.5212126755   0.659123159305 0.02404732  0.00053761  0.0080688 0.0000
                      *** Initiating the SOSCF procedure ***
                           *** Shutting down DIIS ***
                      *** Re-Reading the Fockian *** 
                      *** Removing any level shift *** 
ITER      Energy       Delta-E        Grad      Rot      Max-DP    RMS-DP
  5   -246.60696851  -0.0857558333  0.001625  0.001625  0.016828  0.000348
               *** Restarting incremental Fock matrix formation ***
  6   -246.61107118  -0.0041026730  0.000592  0.000995  0.009510  0.000213
  7   -246.61109067  -0.0000194832  0.000337  0.001444  0.007121  0.000161
  8   -246.61109723  -0.0000065677  0.000102  0.000254  0.000942  0.000027
  9   -246.61109798  -0.0000007475  0.000085  0.000304  0.001153  0.000028
 10   -246.61109821  -0.0000002283  0.000020  0.000051  0.000273  0.000007
 11   -246.61109823  -0.0000000177  0.000007  0.000010  0.000059  0.000002
 12   -246.61109823  -0.0000000026  0.000002  0.000002  0.000021  0.000001
 13   -246.61109823  -0.0000000002  0.000001  0.000001  0.000006  0.000000
                  ***Gradient check signals convergence***
              ***Rediagonalizing the Fockian in SOSCF/NRSCF***

               *****************************************************
               *                     SUCCESS                       *
               *           SCF CONVERGED AFTER  14 CYCLES          *
               *****************************************************

Total Energy       :         -246.61109823 Eh           -6710.62914 eV
  Last Energy change         ...   -3.5755e-11  Tolerance :   1.0000e-09
  Last MAX-Density change    ...    2.9438e-06  Tolerance :   1.0000e-08
             **** THE GBW FILE WAS UPDATED (piridine_efield_z_0.004.gbw) ****
             **** DENSITY piridine_efield_z_0.004.scfp WAS UPDATED ****
             **** ENERGY FILE WAS UPDATED (piridine_efield_z_0.004.en.tmp) ****
             **** THE GBW FILE WAS UPDATED (piridine_efield_z_0.004.gbw) ****
             **** DENSITY piridine_efield_z_0.004.scfp WAS UPDATED ****
----------------
ORBITAL ENERGIES
----------------

  NO   OCC          E(Eh)            E(eV) 
   0   2.0000     -15.525488      -422.4700 
   1   2.0000     -11.268955      -306.6439 
   2   2.0000     -11.268916      -306.6428 
   3   2.0000     -11.253053      -306.2111 
   4   2.0000     -11.242979      -305.9370 
   5   2.0000     -11.242899      -305.9348 
   6   2.0000      -1.340128       -36.4667 
   7   2.0000      -1.081211       -29.4213 
   8   2.0000      -1.077641       -29.3241 
   9   2.0000      -0.885128       -24.0856 
  10   2.0000      -0.843426       -22.9508 
  11   2.0000      -0.743751       -20.2385 
  12   2.0000      -0.699846       -19.0438 
  13   2.0000      -0.646641       -17.5960 
  14   2.0000      -0.600766       -16.3477 
  15   2.0000      -0.590894       -16.0790 
  16   2.0000      -0.577240       -15.7075 
  17   2.0000      -0.535355       -14.5677 
  18   2.0000      -0.387580       -10.5466 
  19   2.0000      -0.347738        -9.4624 
  20   2.0000      -0.327732        -8.9181 
  21   0.0000       0.010823         0.2945 
  22   0.0000       0.029647         0.8067 
  23   0.0000       0.039245         1.0679 
  24   0.0000       0.066804         1.8178 
  25   0.0000       0.069778         1.8988 
  26   0.0000       0.089973         2.4483 
  27   0.0000       0.101348         2.7578 
  28   0.0000       0.111565         3.0358 
  29   0.0000       0.115876         3.1531 
  30   0.0000       0.123937         3.3725 
  31   0.0000       0.125358         3.4112 
  32   0.0000       0.135903         3.6981 
  33   0.0000       0.140150         3.8137 
  34   0.0000       0.141436         3.8487 
  35   0.0000       0.142567         3.8795 
  36   0.0000       0.155920         4.2428 
  37   0.0000       0.160425         4.3654 
  38   0.0000       0.171556         4.6683 
  39   0.0000       0.180007         4.8982 
  40   0.0000       0.189325         5.1518 
  41   0.0000       0.190458         5.1826 
  42   0.0000       0.193297         5.2599 
  43   0.0000       0.195352         5.3158 
  44   0.0000       0.240451         6.5430 
  45   0.0000       0.279979         7.6186 
  46   0.0000       0.284928         7.7533 
  47   0.0000       0.297374         8.0919 
  48   0.0000       0.297458         8.0942 
  49   0.0000       0.305136         8.3032 
  50   0.0000       0.327936         8.9236 
  51   0.0000       0.335603         9.1322 
  52   0.0000       0.342649         9.3240 
  53   0.0000       0.350657         9.5419 
  54   0.0000       0.361178         9.8281 
  55   0.0000       0.364018         9.9054 
  56   0.0000       0.365441         9.9441 
  57   0.0000       0.380470        10.3531 
  58   0.0000       0.407501        11.0887 
  59   0.0000       0.424629        11.5547 
  60   0.0000       0.424954        11.5636 
  61   0.0000       0.427972        11.6457 
  62   0.0000       0.444487        12.0951 
  63   0.0000       0.454078        12.3561 
  64   0.0000       0.463632        12.6161 
  65   0.0000       0.499699        13.5975 
  66   0.0000       0.530188        14.4271 
  67   0.0000       0.546848        14.8805 
  68   0.0000       0.548948        14.9376 
  69   0.0000       0.561547        15.2805 
  70   0.0000       0.574119        15.6226 
  71   0.0000       0.574974        15.6458 
  72   0.0000       0.595873        16.2145 
  73   0.0000       0.605850        16.4860 
  74   0.0000       0.617461        16.8020 
  75   0.0000       0.619043        16.8450 
  76   0.0000       0.644523        17.5384 
  77   0.0000       0.658109        17.9081 
  78   0.0000       0.674904        18.3651 
  79   0.0000       0.676129        18.3984 
  80   0.0000       0.679302        18.4847 
  81   0.0000       0.689450        18.7609 
  82   0.0000       0.689721        18.7683 
  83   0.0000       0.691731        18.8230 
  84   0.0000       0.710908        19.3448 
  85   0.0000       0.721968        19.6457 
  86   0.0000       0.727881        19.8066 
  87   0.0000       0.728462        19.8225 
  88   0.0000       0.749948        20.4071 
  89   0.0000       0.761257        20.7148 
  90   0.0000       0.812296        22.1037 
  91   0.0000       0.816287        22.2123 
  92   0.0000       0.842827        22.9345 
  93   0.0000       0.849226        23.1086 
  94   0.0000       0.863297        23.4915 
  95   0.0000       0.873038        23.7566 
  96   0.0000       0.882502        24.0141 
  97   0.0000       0.898875        24.4596 
  98   0.0000       0.909616        24.7519 
  99   0.0000       0.919167        25.0118 
 100   0.0000       0.935049        25.4440 
 101   0.0000       0.963410        26.2157 
 102   0.0000       0.982988        26.7485 
 103   0.0000       1.005415        27.3587 
 104   0.0000       1.019664        27.7465 
 105   0.0000       1.045090        28.4383 
 106   0.0000       1.090987        29.6873 
 107   0.0000       1.106995        30.1229 
 108   0.0000       1.114442        30.3255 
 109   0.0000       1.116495        30.3814 
 110   0.0000       1.130427        30.7605 
 111   0.0000       1.153215        31.3806 
 112   0.0000       1.178700        32.0741 
 113   0.0000       1.240828        33.7646 
 114   0.0000       1.347608        36.6703 
 115   0.0000       1.362429        37.0736 
 116   0.0000       1.368660        37.2431 
 117   0.0000       1.400804        38.1178 
 118   0.0000       1.404236        38.2112 
 119   0.0000       1.469308        39.9819 
 120   0.0000       1.507144        41.0115 
 121   0.0000       1.515005        41.2254 
 122   0.0000       1.519453        41.3464 
 123   0.0000       1.522333        41.4248 
 124   0.0000       1.591400        43.3042 
 125   0.0000       1.603562        43.6351 
 126   0.0000       1.605511        43.6882 
 127   0.0000       1.629306        44.3357 
 128   0.0000       1.665377        45.3172 
 129   0.0000       1.688002        45.9329 
 130   0.0000       1.689665        45.9781 
 131   0.0000       1.697103        46.1805 
 132   0.0000       1.711157        46.5630 
 133   0.0000       1.747093        47.5408 
 134   0.0000       1.815325        49.3975 
 135   0.0000       1.816580        49.4317 
 136   0.0000       1.844789        50.1993 
 137   0.0000       1.856000        50.5043 
 138   0.0000       1.892132        51.4875 
 139   0.0000       1.909800        51.9683 
 140   0.0000       1.948735        53.0278 
 141   0.0000       1.960943        53.3600 
 142   0.0000       1.998603        54.3847 
 143   0.0000       2.016417        54.8695 
 144   0.0000       2.063682        56.1557 
 145   0.0000       2.103913        57.2504 
 146   0.0000       2.120523        57.7024 
 147   0.0000       2.145283        58.3761 
 148   0.0000       2.162374        58.8412 
 149   0.0000       2.165696        58.9316 
 150   0.0000       2.222023        60.4643 
 151   0.0000       2.248668        61.1894 
 152   0.0000       2.252774        61.3011 
 153   0.0000       2.279172        62.0194 
 154   0.0000       2.325684        63.2851 
 155   0.0000       2.340078        63.6768 
 156   0.0000       2.345672        63.8290 
 157   0.0000       2.365331        64.3639 
 158   0.0000       2.418867        65.8207 
 159   0.0000       2.439796        66.3902 
 160   0.0000       2.467759        67.1511 
 161   0.0000       2.522851        68.6503 
 162   0.0000       2.557903        69.6041 
 163   0.0000       2.590172        70.4822 
 164   0.0000       2.639711        71.8302 
 165   0.0000       2.753105        74.9158 
 166   0.0000       2.824464        76.8576 
 167   0.0000       2.837499        77.2123 
 168   0.0000       2.849098        77.5279 
 169   0.0000       2.910384        79.1956 
 170   0.0000       2.938453        79.9594 
 171   0.0000       2.950564        80.2889 
 172   0.0000       2.984128        81.2023 
 173   0.0000       3.100990        84.3822 
 174   0.0000       3.142735        85.5182 
 175   0.0000       3.196830        86.9902 
 176   0.0000       3.308133        90.0189 
 177   0.0000       3.457661        94.0877 
 178   0.0000       3.507375        95.4405 
 179   0.0000       3.611098        98.2630 
 180   0.0000       3.947974       107.4298 
 181   0.0000       3.964913       107.8908 
 182   0.0000       4.507377       122.6520 
Total SCF time: 0 days 0 hours 0 min 10 sec 

Maximum memory used throughout the entire SCF-calculation: 229.7 MB

-------------------------   --------------------
FINAL SINGLE POINT ENERGY      -246.611098229089
-------------------------   --------------------


                            ***************************************
                            *     ORCA property calculations      *
                            ***************************************

                                    ---------------------
                                    Active property flags
                                    ---------------------
   (+) Dipole Moment
   (+) Polarizability


------------------------------------------------------------------------------
                       ORCA ELECTRIC PROPERTIES CALCULATION
------------------------------------------------------------------------------

Dipole Moment Calculation                       ... on
Quadrupole Moment Calculation                   ... off
Polarizability Calculation                      ... Analytic (CP-SCF)
GBWName                                         ... piridine_efield_z_0.004.gbw
Electron density                                ... piridine_efield_z_0.004.scfp
The origin for moment calculation is the CENTER OF MASS  = (-0.340579,  0.682087  0.420996)

-------------
DIPOLE MOMENT
-------------
                                X             Y             Z
Electronic contribution:     -0.00000      -0.00000       1.74032
Nuclear contribution   :      0.00000      -0.00000      -1.88024
                        -----------------------------------------
Total Dipole Moment    :     -0.00000      -0.00000      -0.13992
                        -----------------------------------------
Magnitude (a.u.)       :      0.13992
Magnitude (Debye)      :      0.35565



--------------------
Rotational spectrum 
--------------------
 
Rotational constants in cm-1:     0.229528     0.201222     0.107222 
Rotational constants in MHz :  6881.073070  6032.486698  3214.449192 

 Dipole components along the rotational axes: 
x,y,z [a.u.] :    -0.000000    -0.139920     0.000000 
x,y,z [Debye]:    -0.000000    -0.355649     0.000000 

 
Transforming and storing MO dipole integrals   ... done

                ... starting polarizability calculation

The origin for moment calculation is the CENTER OF MASS  = (-0.340579,  0.682087  0.420996)
Opening the Dipole integral file               ... (piridine_efield_z_0.004.dmo.tmp) done
Reading Dipole-MO integrals                    ... done
Solving CP-SCF equations                       ... 

           ************************************************************
           *        Program running with 16 parallel MPI-processes    *
           *              working on a common directory               *
           ************************************************************

------------------------------------------------------------------------------
                           ORCA CP-SCF CALCULATION
------------------------------------------------------------------------------

Input orbitals are from        ... piridine_efield_z_0.004.gbw
Input Perturbation             ... piridine_efield_z_0.004.cpv.tmp
Wavefunction output            ... piridine_efield_z_0.004.cpu.tmp
Perturbation mode              ... Real perturbation (singlet)
Solver                         ... POPLE
Max. number of iterations      ... 64
Convergence tolerance          ... 3.000e-05
Integral handling              ... Direct
Number of perturbations        ... 3
Number of operators            ... 1
Orbital ranges used for CP-SCF:
 Operator 0:  Orbitals   0... 20  to  21...182
Variables per perturbation     ... 3402
Memory available               ... 1993.8 MB
Memory needed per perturbation ...   1.0 MB
Perturbations treated per batch... 3
Number of batches              ... 1
     CP-SCF ITERATION   0:   2.0779e+00 (   1.1 sec   0/  3 done)
     CP-SCF ITERATION   1:   4.0934e-01 (   1.2 sec   0/  3 done)
     CP-SCF ITERATION   2:   1.2142e-01 (   1.2 sec   0/  3 done)
     CP-SCF ITERATION   3:   5.3880e-02 (   1.2 sec   0/  3 done)
     CP-SCF ITERATION   4:   2.1658e-02 (   1.2 sec   0/  3 done)
     CP-SCF ITERATION   5:   9.6162e-03 (   1.2 sec   0/  3 done)
     CP-SCF ITERATION   6:   2.7196e-03 (   1.2 sec   0/  3 done)
     CP-SCF ITERATION   7:   5.7557e-04 (   1.2 sec   1/  3 done)
     CP-SCF ITERATION   8:   1.5826e-04 (   1.0 sec   1/  3 done)
     CP-SCF ITERATION   9:   4.5971e-05 (   1.0 sec   2/  3 done)
     CP-SCF ITERATION  10:   1.1401e-05 (   0.8 sec   3/  3 done)
                    *** THE CP-SCF HAS CONVERGED ***
done
Reading CP-SCF coefficients                    ... done
Doing the polarizability tensor                ... done
Cleaning up                                    ... done

-------------------------
THE POLARIZABILITY TENSOR
-------------------------

The raw cartesian tensor (atomic units):
   39.92102     -0.00000      0.00000  
   -0.00000     79.79801     -0.00000  
    0.00000     -0.00000     65.81608  
diagonalized tensor: 
   39.92102     65.81608     79.79801  

    1.00000     -0.00000     -0.00000  
    0.00000     -0.00000      1.00000  
   -0.00000     -1.00000     -0.00000  

Isotropic polarizability :  61.84504


Timings for individual modules:

Sum of individual times         ...       30.379 sec (=   0.506 min)
GTO integral calculation        ...        2.893 sec (=   0.048 min)   9.5 %
SCF iterations                  ...       12.561 sec (=   0.209 min)  41.3 %
Solution of CP-SCF eqns.        ...       14.925 sec (=   0.249 min)  49.1 %
                             ****ORCA TERMINATED NORMALLY****
TOTAL RUN TIME: 0 days 0 hours 0 minutes 33 seconds 406 msec
