
                                 *****************
                                 * O   R   C   A *
                                 *****************

                                            #,                                       
                                            ###                                      
                                            ####                                     
                                            #####                                    
                                            ######                                   
                                           ########,                                 
                                     ,,################,,,,,                         
                               ,,#################################,,                 
                          ,,##########################################,,             
                       ,#########################################, ''#####,          
                    ,#############################################,,   '####,        
                  ,##################################################,,,,####,       
                ,###########''''           ''''###############################       
              ,#####''   ,,,,##########,,,,          '''####'''          '####       
            ,##' ,,,,###########################,,,                        '##       
           ' ,,###''''                  '''############,,,                           
         ,,##''                                '''############,,,,        ,,,,,,###''
      ,#''                                            '''#######################'''  
     '                                                          ''''####''''         
             ,#######,   #######,   ,#######,      ##                                
            ,#'     '#,  ##    ##  ,#'     '#,    #''#        ######   ,####,        
            ##       ##  ##   ,#'  ##            #'  '#       #        #'  '#        
            ##       ##  #######   ##           ,######,      #####,   #    #        
            '#,     ,#'  ##    ##  '#,     ,#' ,#      #,         ##   #,  ,#        
             '#######'   ##     ##  '#######'  #'      '#     #####' # '####'        



                  #######################################################
                  #                        -***-                        #
                  #          Department of theory and spectroscopy      #
                  #    Directorship and core code : Frank Neese         #
                  #        Max Planck Institute fuer Kohlenforschung    #
                  #                Kaiser Wilhelm Platz 1               #
                  #                 D-45470 Muelheim/Ruhr               #
                  #                      Germany                        #
                  #                                                     #
                  #                  All rights reserved                #
                  #                        -***-                        #
                  #######################################################


                         Program Version 5.0.4 -  RELEASE  -


 With contributions from (in alphabetic order):
   Daniel Aravena         : Magnetic Suceptibility
   Michael Atanasov       : Ab Initio Ligand Field Theory (pilot matlab implementation)
   Alexander A. Auer      : GIAO ZORA, VPT2 properties, NMR spectrum
   Ute Becker             : Parallelization
   Giovanni Bistoni       : ED, misc. LED, open-shell LED, HFLD
   Martin Brehm           : Molecular dynamics
   Dmytro Bykov           : SCF Hessian
   Vijay G. Chilkuri      : MRCI spin determinant printing, contributions to CSF-ICE
   Dipayan Datta          : RHF DLPNO-CCSD density
   Achintya Kumar Dutta   : EOM-CC, STEOM-CC
   Dmitry Ganyushin       : Spin-Orbit,Spin-Spin,Magnetic field MRCI
   Miquel Garcia          : C-PCM and meta-GGA Hessian, CC/C-PCM, Gaussian charge scheme
   Yang Guo               : DLPNO-NEVPT2, F12-NEVPT2, CIM, IAO-localization
   Andreas Hansen         : Spin unrestricted coupled pair/coupled cluster methods
   Benjamin Helmich-Paris : MC-RPA, TRAH-SCF, COSX integrals
   Lee Huntington         : MR-EOM, pCC
   Robert Izsak           : Overlap fitted RIJCOSX, COSX-SCS-MP3, EOM
   Marcus Kettner         : VPT2
   Christian Kollmar      : KDIIS, OOCD, Brueckner-CCSD(T), CCSD density, CASPT2, CASPT2-K
   Simone Kossmann        : Meta GGA functionals, TD-DFT gradient, OOMP2, MP2 Hessian
   Martin Krupicka        : Initial AUTO-CI
   Lucas Lang             : DCDCAS
   Marvin Lechner         : AUTO-CI (C++ implementation), FIC-MRCC
   Dagmar Lenk            : GEPOL surface, SMD
   Dimitrios Liakos       : Extrapolation schemes; Compound Job, initial MDCI parallelization
   Dimitrios Manganas     : Further ROCIS development; embedding schemes
   Dimitrios Pantazis     : SARC Basis sets
   Anastasios Papadopoulos: AUTO-CI, single reference methods and gradients
   Taras Petrenko         : DFT Hessian,TD-DFT gradient, ASA, ECA, R-Raman, ABS, FL, XAS/XES, NRVS
   Peter Pinski           : DLPNO-MP2, DLPNO-MP2 Gradient
   Christoph Reimann      : Effective Core Potentials
   Marius Retegan         : Local ZFS, SOC
   Christoph Riplinger    : Optimizer, TS searches, QM/MM, DLPNO-CCSD(T), (RO)-DLPNO pert. Triples
   Tobias Risthaus        : Range-separated hybrids, TD-DFT gradient, RPA, STAB
   Michael Roemelt        : Original ROCIS implementation
   Masaaki Saitow         : Open-shell DLPNO-CCSD energy and density
   Barbara Sandhoefer     : DKH picture change effects
   Avijit Sen             : IP-ROCIS
   Kantharuban Sivalingam : CASSCF convergence, NEVPT2, FIC-MRCI
   Bernardo de Souza      : ESD, SOC TD-DFT
   Georgi Stoychev        : AutoAux, RI-MP2 NMR, DLPNO-MP2 response
   Willem Van den Heuvel  : Paramagnetic NMR
   Boris Wezisla          : Elementary symmetry handling
   Frank Wennmohs         : Technical directorship


 We gratefully acknowledge several colleagues who have allowed us to
 interface, adapt or use parts of their codes:
   Stefan Grimme, W. Hujo, H. Kruse, P. Pracht,  : VdW corrections, initial TS optimization,
                  C. Bannwarth, S. Ehlert          DFT functionals, gCP, sTDA/sTD-DF
   Ed Valeev, F. Pavosevic, A. Kumar             : LibInt (2-el integral package), F12 methods
   Garnet Chan, S. Sharma, J. Yang, R. Olivares  : DMRG
   Ulf Ekstrom                                   : XCFun DFT Library
   Mihaly Kallay                                 : mrcc  (arbitrary order and MRCC methods)
   Jiri Pittner, Ondrej Demel                    : Mk-CCSD
   Frank Weinhold                                : gennbo (NPA and NBO analysis)
   Christopher J. Cramer and Donald G. Truhlar   : smd solvation model
   Lars Goerigk                                  : TD-DFT with DH, B97 family of functionals
   V. Asgeirsson, H. Jonsson                     : NEB implementation
   FAccTs GmbH                                   : IRC, NEB, NEB-TS, DLPNO-Multilevel, CI-OPT
                                                   MM, QMMM, 2- and 3-layer-ONIOM, Crystal-QMMM,
                                                   LR-CPCM, SF, NACMEs, symmetry and pop. for TD-DFT,
                                                   nearIR, NL-DFT gradient (VV10), updates on ESD,
                                                   ML-optimized integration grids
   S Lehtola, MJT Oliveira, MAL Marques          : LibXC Library
   Liviu Ungur et al                             : ANISO software


 Your calculation uses the libint2 library for the computation of 2-el integrals
 For citations please refer to: http://libint.valeyev.net

 Your ORCA version has been built with support for libXC version: 5.1.0
 For citations please refer to: https://tddft.org/programs/libxc/

 This ORCA versions uses:
   CBLAS   interface :  Fast vector & matrix operations
   LAPACKE interface :  Fast linear algebra routines
   SCALAPACK package :  Parallel linear algebra routines
   Shared memory     :  Shared parallel matrices
   BLAS/LAPACK       :  OpenBLAS 0.3.15  USE64BITINT DYNAMIC_ARCH NO_AFFINITY SkylakeX SINGLE_THREADED
        Core in use  :  SkylakeX
   Copyright (c) 2011-2014, The OpenBLAS Project


================================================================================

----- Orbital basis set information -----
Your calculation utilizes the basis: aug-cc-pVDZ 
    H, B-Ne : Obtained from the ccRepo (grant-hill.group.shef.ac.uk/ccrepo) Feb. 2017
              R. A. Kendall, T. H. Dunning, Jr., R. J. Harrison, J. Chem. Phys. 96, 6796 (1992)
         He : Obtained from the ccRepo (grant-hill.group.shef.ac.uk/ccrepo) Feb. 2017
              D. E. Woon, T. H. Dunning, Jr., J. Chem. Phys. 100, 2975 (1994)
  Li-Be, Na : Obtained from the ccRepo (grant-hill.group.shef.ac.uk/ccrepo) Feb. 2017
              B. P. Prascher, D. E. Woon, K. A. Peterson, T. H. Dunning, Jr., A. K. Wilson, Theor. Chem. Acc. 128, 69 (2011)
         Mg : Obtained from the Peterson Research Group Website (tyr0.chem.wsu.edu/~kipeters) Feb. 2017
              B. P. Prascher, D. E. Woon, K. A. Peterson, T. H. Dunning, Jr., A. K. Wilson, Theor. Chem. Acc. 128, 69 (2011)
      Al-Ar : Obtained from the ccRepo (grant-hill.group.shef.ac.uk/ccrepo) Feb. 2017
              D. E. Woon, T. H. Dunning, Jr., J. Chem. Phys. 98, 1358 (1993)
      Sc-Zn : Obtained from the ccRepo (grant-hill.group.shef.ac.uk/ccrepo) Feb. 2017
              N. B. Balabanov, K. A. Peterson, J. Chem. Phys. 123, 064107 (2005)
              N. B. Balabanov, K. A. Peterson, J. Chem. Phys. 125, 074110 (2006)
      Ga-Kr : Obtained from the ccRepo (grant-hill.group.shef.ac.uk/ccrepo) Feb. 2017
              A. K. Wilson, D. E. Woon, K. A. Peterson, T. H. Dunning, Jr., J. Chem. Phys. 110, 7667 (1999)

================================================================================
                                        WARNINGS
                       Please study these warnings very carefully!
================================================================================


INFO   : the flag for use of the SHARK integral package has been found!

================================================================================
                                       INPUT FILE
================================================================================
NAME = phenol_efield_x_-0.004.inp
|  1> ! hf aug-cc-pVDZ
|  2> ! MiniPrint VeryTightSCF
|  3> %pal
|  4>  nprocs 16
|  5> end
|  6> %MaxCore 2000
|  7> %scf
|  8>  maxiter=200
|  9>  efield -0.004 , 0.0 , 0.0
| 10> end
| 11> %elprop
| 12>   polar 1
| 13> end
| 14> * xyz 0 1
| 15>  C                  0.26178012    2.32984290    0.00000000
| 16>  C                  1.65694012    2.32984290    0.00000000
| 17>  C                  2.35447812    3.53759390    0.00000000
| 18>  C                  1.65682412    4.74610290   -0.00119900
| 19>  C                  0.26199912    4.74602490   -0.00167800
| 20>  C                 -0.43560188    3.53781890   -0.00068200
| 21>  H                 -0.28797888    1.37752590    0.00045000
| 22>  H                  2.20644812    1.37732990    0.00131500
| 23>  H                  3.45415812    3.53767390    0.00063400
| 24>  H                  2.20702412    5.69824590   -0.00125800
| 25>  H                 -0.28812288    5.69830590   -0.00263100
| 26>  O                 -1.86560184    3.53805688   -0.00091608
| 27>  H                 -2.18650479    3.53625036    0.90385905
| 28> *
| 29> 
| 30>                          ****END OF INPUT****
================================================================================

                       ****************************
                       * Single Point Calculation *
                       ****************************

---------------------------------
CARTESIAN COORDINATES (ANGSTROEM)
---------------------------------
  C      0.261780    2.329843    0.000000
  C      1.656940    2.329843    0.000000
  C      2.354478    3.537594    0.000000
  C      1.656824    4.746103   -0.001199
  C      0.261999    4.746025   -0.001678
  C     -0.435602    3.537819   -0.000682
  H     -0.287979    1.377526    0.000450
  H      2.206448    1.377330    0.001315
  H      3.454158    3.537674    0.000634
  H      2.207024    5.698246   -0.001258
  H     -0.288123    5.698306   -0.002631
  O     -1.865602    3.538057   -0.000916
  H     -2.186505    3.536250    0.903859

----------------------------
CARTESIAN COORDINATES (A.U.)
----------------------------
  NO LB      ZA    FRAG     MASS         X           Y           Z
   0 C     6.0000    0    12.011    0.494693    4.402765    0.000000
   1 C     6.0000    0    12.011    3.131163    4.402765    0.000000
   2 C     6.0000    0    12.011    4.449319    6.685084    0.000000
   3 C     6.0000    0    12.011    3.130944    8.968835   -0.002266
   4 C     6.0000    0    12.011    0.495107    8.968687   -0.003171
   5 C     6.0000    0    12.011   -0.823168    6.685509   -0.001289
   6 H     1.0000    0     1.008   -0.544201    2.603147    0.000850
   7 H     1.0000    0     1.008    4.169583    2.602776    0.002485
   8 H     1.0000    0     1.008    6.527413    6.685235    0.001198
   9 H     1.0000    0     1.008    4.170671   10.768124   -0.002377
  10 H     1.0000    0     1.008   -0.544473   10.768238   -0.004972
  11 O     8.0000    0    15.999   -3.525477    6.685959   -0.001731
  12 H     1.0000    0     1.008   -4.131895    6.682545    1.708046



           ************************************************************
           *        Program running with 16 parallel MPI-processes    *
           *              working on a common directory               *
           ************************************************************
------------------------------------------------------------------------------
                   ___                                                        
                  /   \      - P O W E R E D   B Y -                         
                 /     \                                                     
                 |  |  |   _    _      __       _____    __    __             
                 |  |  |  | |  | |    /  \     |  _  \  |  |  /  |          
                  \  \/   | |  | |   /    \    | | | |  |  | /  /          
                 / \  \   | |__| |  /  /\  \   | |_| |  |  |/  /          
                |  |  |   |  __  | /  /__\  \  |    /   |      \           
                |  |  |   | |  | | |   __   |  |    \   |  |\   \          
                \     /   | |  | | |  |  |  |  | |\  \  |  | \   \       
                 \___/    |_|  |_| |__|  |__|  |_| \__\ |__|  \__/        
                                                                              
                      - O R C A' S   B I G   F R I E N D -                    
                                      &                                       
                       - I N T E G R A L  F E E D E R -                       
                                                                              
 v1 FN, 2020, v2 2021                                                         
------------------------------------------------------------------------------


Reading SHARK input file phenol_efield_x_-0.004.SHARKINP.tmp ... ok
----------------------
SHARK INTEGRAL PACKAGE
----------------------

Number of atoms                             ...     13
Number of basis functions                   ...    257
Number of shells                            ...    135
Maximum angular momentum                    ...      2
Integral batch strategy                     ... SHARK/LIBINT Hybrid
RI-J (if used) integral strategy            ... SPLIT-RIJ (Revised 2003 algorithm where possible)
Printlevel                                  ...      1
Contraction scheme used                     ... PARTIAL GENERAL contraction
Coulomb Range Separation                    ... NOT USED
Exchange Range Separation                   ... NOT USED
Finite Nucleus Model                        ... NOT USED
Auxiliary Coulomb fitting basis             ... NOT available
Auxiliary J/K fitting basis                 ... NOT available
Auxiliary Correlation fitting basis         ... NOT available
Auxiliary 'external' fitting basis          ... NOT available
Integral threshold                          ...     1.000000e-12
Primitive cut-off                           ...     1.000000e-14
Primitive pair pre-selection threshold      ...     1.000000e-14

Calculating pre-screening integrals         ... done (  0.0 sec) Dimension = 135
Calculating pre-screening integrals (ORCA)  ... done (  0.1 sec) Dimension = 93
Organizing shell pair data                  ... done (  0.0 sec)
Shell pair information
Total number of shell pairs                 ...      9180
Shell pairs after pre-screening             ...      8071
Total number of primitive shell pairs       ...     13080
Primitive shell pairs kept                  ...     10795
          la=0 lb=0:   2934 shell pairs
          la=1 lb=0:   2805 shell pairs
          la=1 lb=1:    559 shell pairs
          la=2 lb=0:   1207 shell pairs
          la=2 lb=1:    461 shell pairs
          la=2 lb=2:    105 shell pairs

Calculating one electron integrals          ... done (  0.0 sec)
Calculating Nuclear repulsion               ... done (  0.0 sec) ENN=    268.852435669254 Eh

SHARK setup successfully completed in   0.3 seconds

Maximum memory used throughout the entire GTOINT-calculation: 17.0 MB

An Electric Field will be added: -4.000e-03 0.000e+00 0.000e+00 au

  ... done adding electric field perturbation



           ************************************************************
           *        Program running with 16 parallel MPI-processes    *
           *              working on a common directory               *
           ************************************************************

Diagonalization of the overlap matrix:
Smallest eigenvalue                        ... 2.604e-06
Time for diagonalization                   ...    0.006 sec
Threshold for overlap eigenvalues          ... 1.000e-08
Number of eigenvalues below threshold      ... 0
Time for construction of square roots      ...    0.009 sec
Total time needed                          ...    0.016 sec

Time for model grid setup =    0.055 sec

Loading Hartree-Fock densities                     ... done
Calculating cut-offs                               ... done
Initializing the effective Hamiltonian             ... done
Setting up the integral package (SHARK)            ... done
Starting the Coulomb interaction                   ... done (   0.0 sec)
Reading the grid                                   ... done
Mapping shells                                     ... done
Starting the XC term evaluation                    ... done (   0.0 sec)
Transforming the Hamiltonian                       ... done (   0.0 sec)
Diagonalizing the Hamiltonian                      ... done (   0.0 sec)
Back transforming the eigenvectors                 ... done (   0.0 sec)
Now organizing SCF variables                       ... done
--------------
SCF ITERATIONS
--------------
ITER       Energy         Delta-E        Max-DP      RMS-DP      [F,P]     Damp
               ***  Starting incremental Fock matrix formation  ***
  0   -305.3339425074   0.000000000000 0.89568828  0.02182171  0.2143474 0.7000
  1   -305.4237056216  -0.089763114165 0.65871877  0.01628562  0.1349049 0.7000
                               ***Turning on DIIS***
  2   -305.4787997151  -0.055094093466 1.52545753  0.03758778  0.0793332 0.0000
  3   -304.9972451376   0.481554577509 0.04028861  0.00159374  0.0368012 0.0000
  4   -305.5456931277  -0.548447990101 0.06489939  0.00114135  0.0053750 0.0000
                      *** Initiating the SOSCF procedure ***
                           *** Shutting down DIIS ***
                      *** Re-Reading the Fockian *** 
                      *** Removing any level shift *** 
ITER      Energy       Delta-E        Grad      Rot      Max-DP    RMS-DP
  5   -305.57720570  -0.0315125704  0.001112  0.001112  0.019971  0.000399
               *** Restarting incremental Fock matrix formation ***
  6   -305.59330708  -0.0161013781  0.000526  0.001189  0.002402  0.000070
  7   -305.59331665  -0.0000095745  0.000224  0.000552  0.004476  0.000091
  8   -305.59331935  -0.0000027003  0.000074  0.000197  0.000855  0.000024
  9   -305.59331960  -0.0000002469  0.000045  0.000224  0.000627  0.000015
 10   -305.59331971  -0.0000001099  0.000011  0.000030  0.000350  0.000008
 11   -305.59331972  -0.0000000085  0.000007  0.000025  0.000099  0.000003
 12   -305.59331972  -0.0000000018  0.000002  0.000001  0.000069  0.000002
                  ***Gradient check signals convergence***
              ***Rediagonalizing the Fockian in SOSCF/NRSCF***

               *****************************************************
               *                     SUCCESS                       *
               *           SCF CONVERGED AFTER  13 CYCLES          *
               *****************************************************

Total Energy       :         -305.59331972 Eh           -8315.61699 eV
  Last Energy change         ...   -1.3836e-10  Tolerance :   1.0000e-09
  Last MAX-Density change    ...    2.0777e-05  Tolerance :   1.0000e-08
             **** THE GBW FILE WAS UPDATED (phenol_efield_x_-0.004.gbw) ****
             **** DENSITY phenol_efield_x_-0.004.scfp WAS UPDATED ****
             **** ENERGY FILE WAS UPDATED (phenol_efield_x_-0.004.en.tmp) ****
             **** THE GBW FILE WAS UPDATED (phenol_efield_x_-0.004.gbw) ****
             **** DENSITY phenol_efield_x_-0.004.scfp WAS UPDATED ****
----------------
ORBITAL ENERGIES
----------------

  NO   OCC          E(Eh)            E(eV) 
   0   2.0000     -20.579892      -560.0073 
   1   2.0000     -11.307629      -307.6962 
   2   2.0000     -11.256329      -306.3003 
   3   2.0000     -11.256176      -306.2961 
   4   2.0000     -11.251838      -306.1781 
   5   2.0000     -11.248129      -306.0772 
   6   2.0000     -11.248090      -306.0761 
   7   2.0000      -1.368710       -37.2445 
   8   2.0000      -1.156832       -31.4790 
   9   2.0000      -1.026460       -27.9314 
  10   2.0000      -1.012792       -27.5595 
  11   2.0000      -0.839380       -22.8407 
  12   2.0000      -0.826396       -22.4874 
  13   2.0000      -0.723855       -19.6971 
  14   2.0000      -0.678201       -18.4548 
  15   2.0000      -0.649290       -17.6681 
  16   2.0000      -0.629001       -17.1160 
  17   2.0000      -0.594043       -16.1647 
  18   2.0000      -0.586207       -15.9515 
  19   2.0000      -0.521228       -14.1833 
  20   2.0000      -0.519767       -14.1436 
  21   2.0000      -0.500800       -13.6275 
  22   2.0000      -0.473080       -12.8731 
  23   2.0000      -0.346834        -9.4378 
  24   2.0000      -0.337283        -9.1779 
  25   0.0000       0.007910         0.2152 
  26   0.0000       0.025168         0.6848 
  27   0.0000       0.034837         0.9480 
  28   0.0000       0.059274         1.6129 
  29   0.0000       0.065418         1.7801 
  30   0.0000       0.080117         2.1801 
  31   0.0000       0.098390         2.6773 
  32   0.0000       0.105471         2.8700 
  33   0.0000       0.111912         3.0453 
  34   0.0000       0.124937         3.3997 
  35   0.0000       0.125765         3.4222 
  36   0.0000       0.127191         3.4610 
  37   0.0000       0.136378         3.7110 
  38   0.0000       0.142507         3.8778 
  39   0.0000       0.143789         3.9127 
  40   0.0000       0.151918         4.1339 
  41   0.0000       0.154772         4.2115 
  42   0.0000       0.155881         4.2417 
  43   0.0000       0.172745         4.7006 
  44   0.0000       0.173095         4.7102 
  45   0.0000       0.176351         4.7988 
  46   0.0000       0.181683         4.9438 
  47   0.0000       0.187525         5.1028 
  48   0.0000       0.191422         5.2088 
  49   0.0000       0.193416         5.2631 
  50   0.0000       0.200568         5.4577 
  51   0.0000       0.242573         6.6007 
  52   0.0000       0.252467         6.8700 
  53   0.0000       0.280068         7.6210 
  54   0.0000       0.295947         8.0531 
  55   0.0000       0.298402         8.1199 
  56   0.0000       0.303549         8.2600 
  57   0.0000       0.304615         8.2890 
  58   0.0000       0.319043         8.6816 
  59   0.0000       0.343030         9.3343 
  60   0.0000       0.346847         9.4382 
  61   0.0000       0.347066         9.4442 
  62   0.0000       0.351778         9.5724 
  63   0.0000       0.361757         9.8439 
  64   0.0000       0.369833        10.0637 
  65   0.0000       0.370487        10.0815 
  66   0.0000       0.379575        10.3288 
  67   0.0000       0.395472        10.7614 
  68   0.0000       0.398983        10.8569 
  69   0.0000       0.411734        11.2039 
  70   0.0000       0.414495        11.2790 
  71   0.0000       0.431902        11.7527 
  72   0.0000       0.431970        11.7545 
  73   0.0000       0.447162        12.1679 
  74   0.0000       0.464580        12.6419 
  75   0.0000       0.487722        13.2716 
  76   0.0000       0.496571        13.5124 
  77   0.0000       0.498943        13.5769 
  78   0.0000       0.521512        14.1911 
  79   0.0000       0.530758        14.4427 
  80   0.0000       0.530961        14.4482 
  81   0.0000       0.552893        15.0450 
  82   0.0000       0.573839        15.6149 
  83   0.0000       0.575808        15.6685 
  84   0.0000       0.587280        15.9807 
  85   0.0000       0.593054        16.1378 
  86   0.0000       0.604382        16.4461 
  87   0.0000       0.609979        16.5984 
  88   0.0000       0.630041        17.1443 
  89   0.0000       0.645517        17.5654 
  90   0.0000       0.650857        17.7107 
  91   0.0000       0.669043        18.2056 
  92   0.0000       0.670168        18.2362 
  93   0.0000       0.681012        18.5313 
  94   0.0000       0.683694        18.6043 
  95   0.0000       0.685120        18.6431 
  96   0.0000       0.703185        19.1346 
  97   0.0000       0.723024        19.6745 
  98   0.0000       0.742637        20.2082 
  99   0.0000       0.747037        20.3279 
 100   0.0000       0.750697        20.4275 
 101   0.0000       0.759609        20.6700 
 102   0.0000       0.759669        20.6716 
 103   0.0000       0.768718        20.9179 
 104   0.0000       0.798829        21.7372 
 105   0.0000       0.837634        22.7932 
 106   0.0000       0.852936        23.2096 
 107   0.0000       0.863781        23.5047 
 108   0.0000       0.865436        23.5497 
 109   0.0000       0.873044        23.7567 
 110   0.0000       0.913362        24.8539 
 111   0.0000       0.913594        24.8602 
 112   0.0000       0.922882        25.1129 
 113   0.0000       0.928760        25.2728 
 114   0.0000       0.933200        25.3937 
 115   0.0000       0.934886        25.4395 
 116   0.0000       0.943013        25.6607 
 117   0.0000       0.957486        26.0545 
 118   0.0000       0.973411        26.4879 
 119   0.0000       0.977690        26.6043 
 120   0.0000       0.994254        27.0550 
 121   0.0000       1.033528        28.1237 
 122   0.0000       1.039791        28.2942 
 123   0.0000       1.043629        28.3986 
 124   0.0000       1.066123        29.0107 
 125   0.0000       1.088700        29.6250 
 126   0.0000       1.148673        31.2570 
 127   0.0000       1.154276        31.4095 
 128   0.0000       1.169706        31.8293 
 129   0.0000       1.174811        31.9682 
 130   0.0000       1.256378        34.1878 
 131   0.0000       1.295532        35.2532 
 132   0.0000       1.361616        37.0514 
 133   0.0000       1.378332        37.5063 
 134   0.0000       1.415830        38.5267 
 135   0.0000       1.441200        39.2170 
 136   0.0000       1.461323        39.7646 
 137   0.0000       1.474480        40.1227 
 138   0.0000       1.481295        40.3081 
 139   0.0000       1.519477        41.3471 
 140   0.0000       1.525186        41.5024 
 141   0.0000       1.547421        42.1075 
 142   0.0000       1.562751        42.5246 
 143   0.0000       1.585056        43.1316 
 144   0.0000       1.602360        43.6024 
 145   0.0000       1.626109        44.2487 
 146   0.0000       1.631280        44.3894 
 147   0.0000       1.635247        44.4973 
 148   0.0000       1.646114        44.7930 
 149   0.0000       1.660645        45.1884 
 150   0.0000       1.672233        45.5038 
 151   0.0000       1.700409        46.2705 
 152   0.0000       1.701691        46.3054 
 153   0.0000       1.711707        46.5779 
 154   0.0000       1.729661        47.0665 
 155   0.0000       1.765840        48.0510 
 156   0.0000       1.797132        48.9024 
 157   0.0000       1.797957        48.9249 
 158   0.0000       1.866648        50.7941 
 159   0.0000       1.876258        51.0556 
 160   0.0000       1.885329        51.3024 
 161   0.0000       1.886460        51.3332 
 162   0.0000       1.903739        51.8034 
 163   0.0000       1.926730        52.4290 
 164   0.0000       1.941904        52.8419 
 165   0.0000       1.945858        52.9495 
 166   0.0000       1.957154        53.2569 
 167   0.0000       1.974043        53.7164 
 168   0.0000       1.985053        54.0160 
 169   0.0000       2.042366        55.5756 
 170   0.0000       2.052904        55.8624 
 171   0.0000       2.085934        56.7612 
 172   0.0000       2.108023        57.3622 
 173   0.0000       2.134210        58.0748 
 174   0.0000       2.165402        58.9236 
 175   0.0000       2.177677        59.2576 
 176   0.0000       2.196456        59.7686 
 177   0.0000       2.202848        59.9425 
 178   0.0000       2.211369        60.1744 
 179   0.0000       2.244784        61.0837 
 180   0.0000       2.255027        61.3624 
 181   0.0000       2.285447        62.1902 
 182   0.0000       2.313743        62.9602 
 183   0.0000       2.351597        63.9902 
 184   0.0000       2.358709        64.1837 
 185   0.0000       2.376825        64.6767 
 186   0.0000       2.415204        65.7210 
 187   0.0000       2.451483        66.7082 
 188   0.0000       2.470071        67.2140 
 189   0.0000       2.619833        71.2893 
 190   0.0000       2.632885        71.6445 
 191   0.0000       2.666032        72.5464 
 192   0.0000       2.709153        73.7198 
 193   0.0000       2.752045        74.8870 
 194   0.0000       2.757872        75.0455 
 195   0.0000       2.763459        75.1975 
 196   0.0000       2.852872        77.6306 
 197   0.0000       2.896140        78.8080 
 198   0.0000       2.937500        79.9334 
 199   0.0000       3.006078        81.7996 
 200   0.0000       3.050640        83.0121 
 201   0.0000       3.080915        83.8359 
 202   0.0000       3.123842        85.0041 
 203   0.0000       3.199659        87.0671 
 204   0.0000       3.271296        89.0165 
 205   0.0000       3.372657        91.7747 
 206   0.0000       3.512714        95.5858 
 207   0.0000       3.546974        96.5181 
 208   0.0000       3.743750       101.8726 
 209   0.0000       3.781477       102.8992 
 210   0.0000       3.839033       104.4654 
 211   0.0000       3.931629       106.9851 
 212   0.0000       4.005967       109.0079 
 213   0.0000       4.276027       116.3566 
 214   0.0000       4.715313       128.3102 
Total SCF time: 0 days 0 hours 0 min 16 sec 

Maximum memory used throughout the entire SCF-calculation: 231.6 MB

-------------------------   --------------------
FINAL SINGLE POINT ENERGY      -305.593319718152
-------------------------   --------------------


                            ***************************************
                            *     ORCA property calculations      *
                            ***************************************

                                    ---------------------
                                    Active property flags
                                    ---------------------
   (+) Dipole Moment
   (+) Polarizability


------------------------------------------------------------------------------
                       ORCA ELECTRIC PROPERTIES CALCULATION
------------------------------------------------------------------------------

Dipole Moment Calculation                       ... on
Quadrupole Moment Calculation                   ... off
Polarizability Calculation                      ... Analytic (CP-SCF)
GBWName                                         ... phenol_efield_x_-0.004.gbw
Electron density                                ... phenol_efield_x_-0.004.scfp
The origin for moment calculation is the CENTER OF MASS  = ( 0.892295,  6.685629  0.017111)

-------------
DIPOLE MOMENT
-------------
                                X             Y             Z
Electronic contribution:     -2.11006       0.00073      -0.21795
Nuclear contribution   :      2.09690      -0.00184       0.79546
                        -----------------------------------------
Total Dipole Moment    :     -0.01316      -0.00111       0.57751
                        -----------------------------------------
Magnitude (a.u.)       :      0.57766
Magnitude (Debye)      :      1.46830



--------------------
Rotational spectrum 
--------------------
 
Rotational constants in cm-1:     0.187876     0.084795     0.058746 
Rotational constants in MHz :  5632.368735  2542.097443  1761.161239 

 Dipole components along the rotational axes: 
x,y,z [a.u.] :    -0.020161     0.001477     0.577307 
x,y,z [Debye]:    -0.051245     0.003754     1.467398 

 
Transforming and storing MO dipole integrals   ... done

                ... starting polarizability calculation

The origin for moment calculation is the CENTER OF MASS  = ( 0.892295,  6.685629  0.017111)
Opening the Dipole integral file               ... (phenol_efield_x_-0.004.dmo.tmp) done
Reading Dipole-MO integrals                    ... done
Solving CP-SCF equations                       ... 

           ************************************************************
           *        Program running with 16 parallel MPI-processes    *
           *              working on a common directory               *
           ************************************************************

------------------------------------------------------------------------------
                           ORCA CP-SCF CALCULATION
------------------------------------------------------------------------------

Input orbitals are from        ... phenol_efield_x_-0.004.gbw
Input Perturbation             ... phenol_efield_x_-0.004.cpv.tmp
Wavefunction output            ... phenol_efield_x_-0.004.cpu.tmp
Perturbation mode              ... Real perturbation (singlet)
Solver                         ... POPLE
Max. number of iterations      ... 64
Convergence tolerance          ... 3.000e-05
Integral handling              ... Direct
Number of perturbations        ... 3
Number of operators            ... 1
Orbital ranges used for CP-SCF:
 Operator 0:  Orbitals   0... 24  to  25...214
Variables per perturbation     ... 4750
Memory available               ... 1992.1 MB
Memory needed per perturbation ...   1.4 MB
Perturbations treated per batch... 3
Number of batches              ... 1
     CP-SCF ITERATION   0:   2.0025e+00 (   2.2 sec   0/  3 done)
     CP-SCF ITERATION   1:   4.2250e-01 (   2.2 sec   0/  3 done)
     CP-SCF ITERATION   2:   9.2899e-02 (   2.2 sec   0/  3 done)
     CP-SCF ITERATION   3:   4.1451e-02 (   2.2 sec   0/  3 done)
     CP-SCF ITERATION   4:   1.2214e-02 (   2.2 sec   0/  3 done)
     CP-SCF ITERATION   5:   4.8336e-03 (   2.2 sec   0/  3 done)
     CP-SCF ITERATION   6:   2.4607e-03 (   2.2 sec   0/  3 done)
     CP-SCF ITERATION   7:   9.4872e-04 (   2.2 sec   0/  3 done)
     CP-SCF ITERATION   8:   3.2872e-04 (   2.2 sec   0/  3 done)
     CP-SCF ITERATION   9:   8.7474e-05 (   2.2 sec   2/  3 done)
     CP-SCF ITERATION  10:   2.3505e-05 (   1.5 sec   3/  3 done)
                    *** THE CP-SCF HAS CONVERGED ***
done
Reading CP-SCF coefficients                    ... done
Doing the polarizability tensor                ... done
Cleaning up                                    ... done

-------------------------
THE POLARIZABILITY TENSOR
-------------------------

The raw cartesian tensor (atomic units):
   88.66752      0.00318     -1.42302  
    0.00318     81.88963     -0.02317  
   -1.42302     -0.02317     48.02746  
diagonalized tensor: 
   47.97767     81.88965     88.71729  

    0.03495     -0.00061     -0.99939  
    0.00068      1.00000     -0.00058  
    0.99939     -0.00066      0.03495  

Isotropic polarizability :  72.86154


Timings for individual modules:

Sum of individual times         ...       47.630 sec (=   0.794 min)
GTO integral calculation        ...        2.857 sec (=   0.048 min)   6.0 %
SCF iterations                  ...       18.664 sec (=   0.311 min)  39.2 %
Solution of CP-SCF eqns.        ...       26.109 sec (=   0.435 min)  54.8 %
                             ****ORCA TERMINATED NORMALLY****
TOTAL RUN TIME: 0 days 0 hours 0 minutes 50 seconds 726 msec
