
                                 *****************
                                 * O   R   C   A *
                                 *****************

                                            #,                                       
                                            ###                                      
                                            ####                                     
                                            #####                                    
                                            ######                                   
                                           ########,                                 
                                     ,,################,,,,,                         
                               ,,#################################,,                 
                          ,,##########################################,,             
                       ,#########################################, ''#####,          
                    ,#############################################,,   '####,        
                  ,##################################################,,,,####,       
                ,###########''''           ''''###############################       
              ,#####''   ,,,,##########,,,,          '''####'''          '####       
            ,##' ,,,,###########################,,,                        '##       
           ' ,,###''''                  '''############,,,                           
         ,,##''                                '''############,,,,        ,,,,,,###''
      ,#''                                            '''#######################'''  
     '                                                          ''''####''''         
             ,#######,   #######,   ,#######,      ##                                
            ,#'     '#,  ##    ##  ,#'     '#,    #''#        ######   ,####,        
            ##       ##  ##   ,#'  ##            #'  '#       #        #'  '#        
            ##       ##  #######   ##           ,######,      #####,   #    #        
            '#,     ,#'  ##    ##  '#,     ,#' ,#      #,         ##   #,  ,#        
             '#######'   ##     ##  '#######'  #'      '#     #####' # '####'        



                  #######################################################
                  #                        -***-                        #
                  #          Department of theory and spectroscopy      #
                  #    Directorship and core code : Frank Neese         #
                  #        Max Planck Institute fuer Kohlenforschung    #
                  #                Kaiser Wilhelm Platz 1               #
                  #                 D-45470 Muelheim/Ruhr               #
                  #                      Germany                        #
                  #                                                     #
                  #                  All rights reserved                #
                  #                        -***-                        #
                  #######################################################


                         Program Version 5.0.4 -  RELEASE  -


 With contributions from (in alphabetic order):
   Daniel Aravena         : Magnetic Suceptibility
   Michael Atanasov       : Ab Initio Ligand Field Theory (pilot matlab implementation)
   Alexander A. Auer      : GIAO ZORA, VPT2 properties, NMR spectrum
   Ute Becker             : Parallelization
   Giovanni Bistoni       : ED, misc. LED, open-shell LED, HFLD
   Martin Brehm           : Molecular dynamics
   Dmytro Bykov           : SCF Hessian
   Vijay G. Chilkuri      : MRCI spin determinant printing, contributions to CSF-ICE
   Dipayan Datta          : RHF DLPNO-CCSD density
   Achintya Kumar Dutta   : EOM-CC, STEOM-CC
   Dmitry Ganyushin       : Spin-Orbit,Spin-Spin,Magnetic field MRCI
   Miquel Garcia          : C-PCM and meta-GGA Hessian, CC/C-PCM, Gaussian charge scheme
   Yang Guo               : DLPNO-NEVPT2, F12-NEVPT2, CIM, IAO-localization
   Andreas Hansen         : Spin unrestricted coupled pair/coupled cluster methods
   Benjamin Helmich-Paris : MC-RPA, TRAH-SCF, COSX integrals
   Lee Huntington         : MR-EOM, pCC
   Robert Izsak           : Overlap fitted RIJCOSX, COSX-SCS-MP3, EOM
   Marcus Kettner         : VPT2
   Christian Kollmar      : KDIIS, OOCD, Brueckner-CCSD(T), CCSD density, CASPT2, CASPT2-K
   Simone Kossmann        : Meta GGA functionals, TD-DFT gradient, OOMP2, MP2 Hessian
   Martin Krupicka        : Initial AUTO-CI
   Lucas Lang             : DCDCAS
   Marvin Lechner         : AUTO-CI (C++ implementation), FIC-MRCC
   Dagmar Lenk            : GEPOL surface, SMD
   Dimitrios Liakos       : Extrapolation schemes; Compound Job, initial MDCI parallelization
   Dimitrios Manganas     : Further ROCIS development; embedding schemes
   Dimitrios Pantazis     : SARC Basis sets
   Anastasios Papadopoulos: AUTO-CI, single reference methods and gradients
   Taras Petrenko         : DFT Hessian,TD-DFT gradient, ASA, ECA, R-Raman, ABS, FL, XAS/XES, NRVS
   Peter Pinski           : DLPNO-MP2, DLPNO-MP2 Gradient
   Christoph Reimann      : Effective Core Potentials
   Marius Retegan         : Local ZFS, SOC
   Christoph Riplinger    : Optimizer, TS searches, QM/MM, DLPNO-CCSD(T), (RO)-DLPNO pert. Triples
   Tobias Risthaus        : Range-separated hybrids, TD-DFT gradient, RPA, STAB
   Michael Roemelt        : Original ROCIS implementation
   Masaaki Saitow         : Open-shell DLPNO-CCSD energy and density
   Barbara Sandhoefer     : DKH picture change effects
   Avijit Sen             : IP-ROCIS
   Kantharuban Sivalingam : CASSCF convergence, NEVPT2, FIC-MRCI
   Bernardo de Souza      : ESD, SOC TD-DFT
   Georgi Stoychev        : AutoAux, RI-MP2 NMR, DLPNO-MP2 response
   Willem Van den Heuvel  : Paramagnetic NMR
   Boris Wezisla          : Elementary symmetry handling
   Frank Wennmohs         : Technical directorship


 We gratefully acknowledge several colleagues who have allowed us to
 interface, adapt or use parts of their codes:
   Stefan Grimme, W. Hujo, H. Kruse, P. Pracht,  : VdW corrections, initial TS optimization,
                  C. Bannwarth, S. Ehlert          DFT functionals, gCP, sTDA/sTD-DF
   Ed Valeev, F. Pavosevic, A. Kumar             : LibInt (2-el integral package), F12 methods
   Garnet Chan, S. Sharma, J. Yang, R. Olivares  : DMRG
   Ulf Ekstrom                                   : XCFun DFT Library
   Mihaly Kallay                                 : mrcc  (arbitrary order and MRCC methods)
   Jiri Pittner, Ondrej Demel                    : Mk-CCSD
   Frank Weinhold                                : gennbo (NPA and NBO analysis)
   Christopher J. Cramer and Donald G. Truhlar   : smd solvation model
   Lars Goerigk                                  : TD-DFT with DH, B97 family of functionals
   V. Asgeirsson, H. Jonsson                     : NEB implementation
   FAccTs GmbH                                   : IRC, NEB, NEB-TS, DLPNO-Multilevel, CI-OPT
                                                   MM, QMMM, 2- and 3-layer-ONIOM, Crystal-QMMM,
                                                   LR-CPCM, SF, NACMEs, symmetry and pop. for TD-DFT,
                                                   nearIR, NL-DFT gradient (VV10), updates on ESD,
                                                   ML-optimized integration grids
   S Lehtola, MJT Oliveira, MAL Marques          : LibXC Library
   Liviu Ungur et al                             : ANISO software


 Your calculation uses the libint2 library for the computation of 2-el integrals
 For citations please refer to: http://libint.valeyev.net

 Your ORCA version has been built with support for libXC version: 5.1.0
 For citations please refer to: https://tddft.org/programs/libxc/

 This ORCA versions uses:
   CBLAS   interface :  Fast vector & matrix operations
   LAPACKE interface :  Fast linear algebra routines
   SCALAPACK package :  Parallel linear algebra routines
   Shared memory     :  Shared parallel matrices
   BLAS/LAPACK       :  OpenBLAS 0.3.15  USE64BITINT DYNAMIC_ARCH NO_AFFINITY SkylakeX SINGLE_THREADED
        Core in use  :  SkylakeX
   Copyright (c) 2011-2014, The OpenBLAS Project


================================================================================

----- Orbital basis set information -----
Your calculation utilizes the basis: aug-cc-pVDZ 
    H, B-Ne : Obtained from the ccRepo (grant-hill.group.shef.ac.uk/ccrepo) Feb. 2017
              R. A. Kendall, T. H. Dunning, Jr., R. J. Harrison, J. Chem. Phys. 96, 6796 (1992)
         He : Obtained from the ccRepo (grant-hill.group.shef.ac.uk/ccrepo) Feb. 2017
              D. E. Woon, T. H. Dunning, Jr., J. Chem. Phys. 100, 2975 (1994)
  Li-Be, Na : Obtained from the ccRepo (grant-hill.group.shef.ac.uk/ccrepo) Feb. 2017
              B. P. Prascher, D. E. Woon, K. A. Peterson, T. H. Dunning, Jr., A. K. Wilson, Theor. Chem. Acc. 128, 69 (2011)
         Mg : Obtained from the Peterson Research Group Website (tyr0.chem.wsu.edu/~kipeters) Feb. 2017
              B. P. Prascher, D. E. Woon, K. A. Peterson, T. H. Dunning, Jr., A. K. Wilson, Theor. Chem. Acc. 128, 69 (2011)
      Al-Ar : Obtained from the ccRepo (grant-hill.group.shef.ac.uk/ccrepo) Feb. 2017
              D. E. Woon, T. H. Dunning, Jr., J. Chem. Phys. 98, 1358 (1993)
      Sc-Zn : Obtained from the ccRepo (grant-hill.group.shef.ac.uk/ccrepo) Feb. 2017
              N. B. Balabanov, K. A. Peterson, J. Chem. Phys. 123, 064107 (2005)
              N. B. Balabanov, K. A. Peterson, J. Chem. Phys. 125, 074110 (2006)
      Ga-Kr : Obtained from the ccRepo (grant-hill.group.shef.ac.uk/ccrepo) Feb. 2017
              A. K. Wilson, D. E. Woon, K. A. Peterson, T. H. Dunning, Jr., J. Chem. Phys. 110, 7667 (1999)

================================================================================
                                        WARNINGS
                       Please study these warnings very carefully!
================================================================================


INFO   : the flag for use of the SHARK integral package has been found!

================================================================================
                                       INPUT FILE
================================================================================
NAME = phenol_efield_x_0.064.inp
|  1> ! hf aug-cc-pVDZ
|  2> ! MiniPrint VeryTightSCF
|  3> %pal
|  4>  nprocs 16
|  5> end
|  6> %MaxCore 2000
|  7> %scf
|  8>  maxiter=200
|  9>  efield 0.064 , 0.0 , 0.0
| 10> end
| 11> %elprop
| 12>   polar 1
| 13> end
| 14> * xyz 0 1
| 15>  C                  0.26178012    2.32984290    0.00000000
| 16>  C                  1.65694012    2.32984290    0.00000000
| 17>  C                  2.35447812    3.53759390    0.00000000
| 18>  C                  1.65682412    4.74610290   -0.00119900
| 19>  C                  0.26199912    4.74602490   -0.00167800
| 20>  C                 -0.43560188    3.53781890   -0.00068200
| 21>  H                 -0.28797888    1.37752590    0.00045000
| 22>  H                  2.20644812    1.37732990    0.00131500
| 23>  H                  3.45415812    3.53767390    0.00063400
| 24>  H                  2.20702412    5.69824590   -0.00125800
| 25>  H                 -0.28812288    5.69830590   -0.00263100
| 26>  O                 -1.86560184    3.53805688   -0.00091608
| 27>  H                 -2.18650479    3.53625036    0.90385905
| 28> *
| 29> 
| 30>                          ****END OF INPUT****
================================================================================

                       ****************************
                       * Single Point Calculation *
                       ****************************

---------------------------------
CARTESIAN COORDINATES (ANGSTROEM)
---------------------------------
  C      0.261780    2.329843    0.000000
  C      1.656940    2.329843    0.000000
  C      2.354478    3.537594    0.000000
  C      1.656824    4.746103   -0.001199
  C      0.261999    4.746025   -0.001678
  C     -0.435602    3.537819   -0.000682
  H     -0.287979    1.377526    0.000450
  H      2.206448    1.377330    0.001315
  H      3.454158    3.537674    0.000634
  H      2.207024    5.698246   -0.001258
  H     -0.288123    5.698306   -0.002631
  O     -1.865602    3.538057   -0.000916
  H     -2.186505    3.536250    0.903859

----------------------------
CARTESIAN COORDINATES (A.U.)
----------------------------
  NO LB      ZA    FRAG     MASS         X           Y           Z
   0 C     6.0000    0    12.011    0.494693    4.402765    0.000000
   1 C     6.0000    0    12.011    3.131163    4.402765    0.000000
   2 C     6.0000    0    12.011    4.449319    6.685084    0.000000
   3 C     6.0000    0    12.011    3.130944    8.968835   -0.002266
   4 C     6.0000    0    12.011    0.495107    8.968687   -0.003171
   5 C     6.0000    0    12.011   -0.823168    6.685509   -0.001289
   6 H     1.0000    0     1.008   -0.544201    2.603147    0.000850
   7 H     1.0000    0     1.008    4.169583    2.602776    0.002485
   8 H     1.0000    0     1.008    6.527413    6.685235    0.001198
   9 H     1.0000    0     1.008    4.170671   10.768124   -0.002377
  10 H     1.0000    0     1.008   -0.544473   10.768238   -0.004972
  11 O     8.0000    0    15.999   -3.525477    6.685959   -0.001731
  12 H     1.0000    0     1.008   -4.131895    6.682545    1.708046



           ************************************************************
           *        Program running with 16 parallel MPI-processes    *
           *              working on a common directory               *
           ************************************************************
------------------------------------------------------------------------------
                   ___                                                        
                  /   \      - P O W E R E D   B Y -                         
                 /     \                                                     
                 |  |  |   _    _      __       _____    __    __             
                 |  |  |  | |  | |    /  \     |  _  \  |  |  /  |          
                  \  \/   | |  | |   /    \    | | | |  |  | /  /          
                 / \  \   | |__| |  /  /\  \   | |_| |  |  |/  /          
                |  |  |   |  __  | /  /__\  \  |    /   |      \           
                |  |  |   | |  | | |   __   |  |    \   |  |\   \          
                \     /   | |  | | |  |  |  |  | |\  \  |  | \   \       
                 \___/    |_|  |_| |__|  |__|  |_| \__\ |__|  \__/        
                                                                              
                      - O R C A' S   B I G   F R I E N D -                    
                                      &                                       
                       - I N T E G R A L  F E E D E R -                       
                                                                              
 v1 FN, 2020, v2 2021                                                         
------------------------------------------------------------------------------


Reading SHARK input file phenol_efield_x_0.064.SHARKINP.tmp ... ok
----------------------
SHARK INTEGRAL PACKAGE
----------------------

Number of atoms                             ...     13
Number of basis functions                   ...    257
Number of shells                            ...    135
Maximum angular momentum                    ...      2
Integral batch strategy                     ... SHARK/LIBINT Hybrid
RI-J (if used) integral strategy            ... SPLIT-RIJ (Revised 2003 algorithm where possible)
Printlevel                                  ...      1
Contraction scheme used                     ... PARTIAL GENERAL contraction
Coulomb Range Separation                    ... NOT USED
Exchange Range Separation                   ... NOT USED
Finite Nucleus Model                        ... NOT USED
Auxiliary Coulomb fitting basis             ... NOT available
Auxiliary J/K fitting basis                 ... NOT available
Auxiliary Correlation fitting basis         ... NOT available
Auxiliary 'external' fitting basis          ... NOT available
Integral threshold                          ...     1.000000e-12
Primitive cut-off                           ...     1.000000e-14
Primitive pair pre-selection threshold      ...     1.000000e-14

Calculating pre-screening integrals         ... done (  0.0 sec) Dimension = 135
Calculating pre-screening integrals (ORCA)  ... done (  0.1 sec) Dimension = 93
Organizing shell pair data                  ... done (  0.0 sec)
Shell pair information
Total number of shell pairs                 ...      9180
Shell pairs after pre-screening             ...      8071
Total number of primitive shell pairs       ...     13080
Primitive shell pairs kept                  ...     10795
          la=0 lb=0:   2934 shell pairs
          la=1 lb=0:   2805 shell pairs
          la=1 lb=1:    559 shell pairs
          la=2 lb=0:   1207 shell pairs
          la=2 lb=1:    461 shell pairs
          la=2 lb=2:    105 shell pairs

Calculating one electron integrals          ... done (  0.0 sec)
Calculating Nuclear repulsion               ... done (  0.0 sec) ENN=    268.852435669254 Eh

SHARK setup successfully completed in   0.3 seconds

Maximum memory used throughout the entire GTOINT-calculation: 17.0 MB

An Electric Field will be added: 6.400e-02 0.000e+00 0.000e+00 au

  ... done adding electric field perturbation



           ************************************************************
           *        Program running with 16 parallel MPI-processes    *
           *              working on a common directory               *
           ************************************************************

Diagonalization of the overlap matrix:
Smallest eigenvalue                        ... 2.604e-06
Time for diagonalization                   ...    0.006 sec
Threshold for overlap eigenvalues          ... 1.000e-08
Number of eigenvalues below threshold      ... 0
Time for construction of square roots      ...    0.013 sec
Total time needed                          ...    0.019 sec

Time for model grid setup =    0.056 sec

Loading Hartree-Fock densities                     ... done
Calculating cut-offs                               ... done
Initializing the effective Hamiltonian             ... done
Setting up the integral package (SHARK)            ... done
Starting the Coulomb interaction                   ... done (   0.0 sec)
Reading the grid                                   ... done
Mapping shells                                     ... done
Starting the XC term evaluation                    ... done (   0.0 sec)
Transforming the Hamiltonian                       ... done (   0.0 sec)
Diagonalizing the Hamiltonian                      ... done (   0.0 sec)
Back transforming the eigenvectors                 ... done (   0.0 sec)
Now organizing SCF variables                       ... done
--------------
SCF ITERATIONS
--------------
ITER       Energy         Delta-E        Max-DP      RMS-DP      [F,P]     Damp
               ***  Starting incremental Fock matrix formation  ***
  0   -299.8749851461   0.000000000000142.07370192  2.72088711  0.5427700 0.7000
  1   -301.4936493928  -1.61866424673199.74957601  1.90987363  0.1796912 0.7000
                               ***Turning on DIIS***
  2   -302.7643450056  -1.27069561282069.71247207  1.33494252  0.1142022 0.7000
  3   -302.8873311901  -0.12298618448648.67583199  0.93251878  0.1138861 0.7000
  4   -303.5842308947  -0.69689970460334.08025020  0.65243168  0.1159310 0.7000
  5   -304.1723649230  -0.58813402830879.89365795  1.50204489  0.0978082 0.0000
  6   -306.0976578933  -1.92529297029726.07964406  0.37305178  0.0528449 0.0000
  7   -304.3277681759   1.76988971740226.47541209  0.35197576  0.0509053 0.0000
  8   -302.5404601524   1.78730802351518.40002787  0.23918080  0.0712519 0.0000
  9   -301.3583113709   1.18214878148710.74412275  0.13834448  0.0878386 0.0000
 10   -300.1153994301   1.242911940776 4.65605935  0.06533126  0.0979395 0.0000
 11   -300.2208206043  -0.105421174141 0.30591147  0.00355248  0.1063249 0.7000
 12   -301.4389271655  -1.218106561205 1.16295563  0.01276575  0.1018986 0.7000
 13   -303.9790291756  -2.540102010113 9.33618854  0.12268926  0.0902275 0.0000
 14   -305.7924682632  -1.813439087647 7.86775063  0.11787003  0.0308330 0.0000
 15   -305.9335832866  -0.141115023353 6.68842060  0.10301908  0.0190716 0.0000
 16   -306.1204272365  -0.186843949885 5.69422211  0.09603762  0.0110357 0.0000
 17   -306.1982210881  -0.077793851581 4.41734521  0.07859960  0.0092062 0.0000
 18   -306.1524223784   0.045798709645 3.40262084  0.06074126  0.0070786 0.0000
 19   -306.1817186839  -0.029296305453 2.99184289  0.05399967  0.0052508 0.0000
               *** Restarting incremental Fock matrix formation ***
                                   *** Resetting DIIS ***
 20   -306.1312545815   0.050464102396 1.60099138  0.02828186  0.0037946 0.0000
 21   -306.1353921831  -0.004137601635 1.21023843  0.02173873  0.0029682 0.0000
 22   -306.1455089150  -0.010116731938 1.23718810  0.02257019  0.0023446 0.0000
 23   -306.1413862284   0.004122686604 0.85958388  0.01573540  0.0016591 0.0000
                      *** Initiating the SOSCF procedure ***
                           *** Shutting down DIIS ***
                      *** Re-Reading the Fockian *** 
                      *** Removing any level shift *** 
ITER      Energy       Delta-E        Grad      Rot      Max-DP    RMS-DP
 24   -306.13856020   0.0028260247  0.002675  0.002675  0.539454  0.009826
               *** Restarting incremental Fock matrix formation ***
 25   -306.13191370   0.0066465036  0.000995  0.005731  0.411428  0.007129
 26   -306.13193128  -0.0000175839  0.000508  0.006177  0.293660  0.005399
 27   -306.13193773  -0.0000064435  0.000048  0.000104  0.052959  0.000879
 28   -306.13193781  -0.0000000799  0.000034  0.000068  0.015860  0.000289
 29   -306.13193783  -0.0000000257  0.000023  0.000104  0.010731  0.000197
 30   -306.13193784  -0.0000000113  0.000011  0.000073  0.000655  0.000009
 31   -306.13193785  -0.0000000036  0.000003  0.000032  0.005192  0.000094
 32   -306.13193785  -0.0000000010  0.000003  0.000020  0.002775  0.000051
 33   -306.13193785  -0.0000000002  0.000002  0.000032  0.001874  0.000033
 34   -306.13193785  -0.0000000002  0.000002  0.000034  0.000359  0.000004
 35   -306.13193785  -0.0000000003  0.000002  0.000032  0.001440  0.000026
 36   -306.13193785  -0.0000000002  0.000001  0.000014  0.001082  0.000019
 37   -306.13193785  -0.0000000001  0.000001  0.000002  0.000169  0.000002
                  ***Gradient check signals convergence***
              ***Rediagonalizing the Fockian in SOSCF/NRSCF***

               *****************************************************
               *                     SUCCESS                       *
               *           SCF CONVERGED AFTER  38 CYCLES          *
               *****************************************************

Total Energy       :         -306.13193785 Eh           -8330.27353 eV
  Last Energy change         ...   -1.0004e-11  Tolerance :   1.0000e-09
  Last MAX-Density change    ...    1.9771e-04  Tolerance :   1.0000e-08
             **** THE GBW FILE WAS UPDATED (phenol_efield_x_0.064.gbw) ****
             **** DENSITY phenol_efield_x_0.064.scfp WAS UPDATED ****
             **** ENERGY FILE WAS UPDATED (phenol_efield_x_0.064.en.tmp) ****
             **** THE GBW FILE WAS UPDATED (phenol_efield_x_0.064.gbw) ****
             **** DENSITY phenol_efield_x_0.064.scfp WAS UPDATED ****
----------------
ORBITAL ENERGIES
----------------

  NO   OCC          E(Eh)            E(eV) 
   0   2.0000     -20.877296      -568.1001 
   1   2.0000     -11.632086      -316.5252 
   2   2.0000     -11.553110      -314.3761 
   3   2.0000     -11.495356      -312.8045 
   4   2.0000     -11.495312      -312.8033 
   5   2.0000     -11.471084      -312.1441 
   6   2.0000     -11.470973      -312.1410 
   7   2.0000      -1.666120       -45.3374 
   8   2.0000      -1.408502       -38.3273 
   9   2.0000      -1.266529       -34.4640 
  10   2.0000      -1.255939       -34.1758 
  11   2.0000      -1.080572       -29.4039 
  12   2.0000      -1.067877       -29.0584 
  13   2.0000      -0.979349       -26.6494 
  14   2.0000      -0.912108       -24.8197 
  15   2.0000      -0.902857       -24.5680 
  16   2.0000      -0.871166       -23.7056 
  17   2.0000      -0.822329       -22.3767 
  18   2.0000      -0.805509       -21.9190 
  19   2.0000      -0.784913       -21.3586 
  20   2.0000      -0.723814       -19.6960 
  21   2.0000      -0.714104       -19.4318 
  22   2.0000      -0.694974       -18.9112 
  23   2.0000      -0.558597       -15.2002 
  24   2.0000      -0.467564       -12.7231 
  25   0.0000      -0.293923        -7.9980 
  26   0.0000      -0.260539        -7.0896 
  27   0.0000      -0.238233        -6.4826 
  28   0.0000      -0.178431        -4.8554 
  29   0.0000      -0.112553        -3.0627 
  30   0.0000      -0.112292        -3.0556 
  31   0.0000      -0.077185        -2.1003 
  32   0.0000      -0.068468        -1.8631 
  33   0.0000      -0.063036        -1.7153 
  34   0.0000      -0.045113        -1.2276 
  35   0.0000      -0.029792        -0.8107 
  36   0.0000      -0.007427        -0.2021 
  37   0.0000      -0.003258        -0.0886 
  38   0.0000       0.008055         0.2192 
  39   0.0000       0.032213         0.8766 
  40   0.0000       0.032945         0.8965 
  41   0.0000       0.037558         1.0220 
  42   0.0000       0.067794         1.8448 
  43   0.0000       0.067868         1.8468 
  44   0.0000       0.125224         3.4075 
  45   0.0000       0.130054         3.5389 
  46   0.0000       0.141478         3.8498 
  47   0.0000       0.146477         3.9858 
  48   0.0000       0.168738         4.5916 
  49   0.0000       0.171269         4.6605 
  50   0.0000       0.172601         4.6967 
  51   0.0000       0.185008         5.0343 
  52   0.0000       0.187696         5.1075 
  53   0.0000       0.190924         5.1953 
  54   0.0000       0.191025         5.1981 
  55   0.0000       0.216303         5.8859 
  56   0.0000       0.222978         6.0675 
  57   0.0000       0.229944         6.2571 
  58   0.0000       0.241462         6.5705 
  59   0.0000       0.244971         6.6660 
  60   0.0000       0.251254         6.8370 
  61   0.0000       0.261348         7.1116 
  62   0.0000       0.269968         7.3462 
  63   0.0000       0.282810         7.6957 
  64   0.0000       0.294070         8.0021 
  65   0.0000       0.312519         8.5041 
  66   0.0000       0.313801         8.5390 
  67   0.0000       0.325924         8.8688 
  68   0.0000       0.343014         9.3339 
  69   0.0000       0.345642         9.4054 
  70   0.0000       0.347098         9.4450 
  71   0.0000       0.365119         9.9354 
  72   0.0000       0.374374        10.1872 
  73   0.0000       0.378580        10.3017 
  74   0.0000       0.410034        11.1576 
  75   0.0000       0.411175        11.1886 
  76   0.0000       0.418131        11.3779 
  77   0.0000       0.428204        11.6520 
  78   0.0000       0.447932        12.1889 
  79   0.0000       0.455361        12.3910 
  80   0.0000       0.463979        12.6255 
  81   0.0000       0.464539        12.6407 
  82   0.0000       0.473122        12.8743 
  83   0.0000       0.478474        13.0199 
  84   0.0000       0.488253        13.2860 
  85   0.0000       0.506617        13.7857 
  86   0.0000       0.509040        13.8517 
  87   0.0000       0.535821        14.5804 
  88   0.0000       0.539042        14.6681 
  89   0.0000       0.541564        14.7367 
  90   0.0000       0.555995        15.1294 
  91   0.0000       0.567571        15.4444 
  92   0.0000       0.583555        15.8794 
  93   0.0000       0.584280        15.8991 
  94   0.0000       0.588792        16.0219 
  95   0.0000       0.596529        16.2324 
  96   0.0000       0.608702        16.5636 
  97   0.0000       0.620089        16.8735 
  98   0.0000       0.630682        17.1617 
  99   0.0000       0.635663        17.2973 
 100   0.0000       0.655821        17.8458 
 101   0.0000       0.673971        18.3397 
 102   0.0000       0.678098        18.4520 
 103   0.0000       0.683692        18.6042 
 104   0.0000       0.686589        18.6830 
 105   0.0000       0.718239        19.5443 
 106   0.0000       0.725487        19.7415 
 107   0.0000       0.726012        19.7558 
 108   0.0000       0.730270        19.8717 
 109   0.0000       0.736796        20.0492 
 110   0.0000       0.761441        20.7199 
 111   0.0000       0.778533        21.1850 
 112   0.0000       0.784684        21.3523 
 113   0.0000       0.786347        21.3976 
 114   0.0000       0.794383        21.6163 
 115   0.0000       0.808085        21.9891 
 116   0.0000       0.811597        22.0847 
 117   0.0000       0.815606        22.1938 
 118   0.0000       0.833118        22.6703 
 119   0.0000       0.838128        22.8066 
 120   0.0000       0.875214        23.8158 
 121   0.0000       0.895149        24.3582 
 122   0.0000       0.907448        24.6929 
 123   0.0000       0.909537        24.7498 
 124   0.0000       0.941493        25.6193 
 125   0.0000       0.965443        26.2710 
 126   0.0000       0.967137        26.3171 
 127   0.0000       0.975077        26.5332 
 128   0.0000       0.989583        26.9279 
 129   0.0000       1.000215        27.2172 
 130   0.0000       1.026825        27.9413 
 131   0.0000       1.114667        30.3316 
 132   0.0000       1.121983        30.5307 
 133   0.0000       1.190686        32.4002 
 134   0.0000       1.208973        32.8978 
 135   0.0000       1.232729        33.5443 
 136   0.0000       1.234939        33.6044 
 137   0.0000       1.275035        34.6955 
 138   0.0000       1.287022        35.0217 
 139   0.0000       1.311358        35.6839 
 140   0.0000       1.356687        36.9173 
 141   0.0000       1.359134        36.9839 
 142   0.0000       1.365565        37.1589 
 143   0.0000       1.416398        38.5421 
 144   0.0000       1.417570        38.5740 
 145   0.0000       1.429852        38.9082 
 146   0.0000       1.441542        39.2263 
 147   0.0000       1.445858        39.3438 
 148   0.0000       1.467233        39.9254 
 149   0.0000       1.484068        40.3835 
 150   0.0000       1.495306        40.6893 
 151   0.0000       1.502874        40.8953 
 152   0.0000       1.513254        41.1777 
 153   0.0000       1.514964        41.2243 
 154   0.0000       1.533098        41.7177 
 155   0.0000       1.543697        42.0061 
 156   0.0000       1.571497        42.7626 
 157   0.0000       1.607921        43.7538 
 158   0.0000       1.645469        44.7755 
 159   0.0000       1.672213        45.5032 
 160   0.0000       1.675369        45.5891 
 161   0.0000       1.688045        45.9340 
 162   0.0000       1.704781        46.3894 
 163   0.0000       1.719273        46.7838 
 164   0.0000       1.729037        47.0495 
 165   0.0000       1.784792        48.5666 
 166   0.0000       1.787197        48.6321 
 167   0.0000       1.804460        49.1019 
 168   0.0000       1.812942        49.3327 
 169   0.0000       1.840292        50.0769 
 170   0.0000       1.856657        50.5222 
 171   0.0000       1.904589        51.8265 
 172   0.0000       1.916312        52.1455 
 173   0.0000       1.930124        52.5214 
 174   0.0000       1.957890        53.2769 
 175   0.0000       1.964969        53.4695 
 176   0.0000       1.986261        54.0489 
 177   0.0000       1.997248        54.3479 
 178   0.0000       2.004750        54.5520 
 179   0.0000       2.054520        55.9063 
 180   0.0000       2.063052        56.1385 
 181   0.0000       2.081644        56.6444 
 182   0.0000       2.140637        58.2497 
 183   0.0000       2.162368        58.8410 
 184   0.0000       2.167606        58.9836 
 185   0.0000       2.198848        59.8337 
 186   0.0000       2.205801        60.0229 
 187   0.0000       2.235910        60.8422 
 188   0.0000       2.246025        61.1175 
 189   0.0000       2.358300        64.1726 
 190   0.0000       2.385014        64.8995 
 191   0.0000       2.451926        66.7203 
 192   0.0000       2.499553        68.0163 
 193   0.0000       2.566030        69.8252 
 194   0.0000       2.577005        70.1239 
 195   0.0000       2.607933        70.9655 
 196   0.0000       2.635435        71.7138 
 197   0.0000       2.690307        73.2070 
 198   0.0000       2.761803        75.1525 
 199   0.0000       2.798063        76.1392 
 200   0.0000       2.833269        77.0972 
 201   0.0000       2.873837        78.2011 
 202   0.0000       2.924783        79.5874 
 203   0.0000       2.990741        81.3822 
 204   0.0000       3.086658        83.9922 
 205   0.0000       3.092933        84.1630 
 206   0.0000       3.270878        89.0051 
 207   0.0000       3.346092        91.0518 
 208   0.0000       3.484458        94.8169 
 209   0.0000       3.485339        94.8409 
 210   0.0000       3.577496        97.3486 
 211   0.0000       3.640872        99.0732 
 212   0.0000       3.737343       101.6983 
 213   0.0000       3.980522       108.3155 
 214   0.0000       4.514469       122.8450 
Total SCF time: 0 days 0 hours 0 min 44 sec 

Maximum memory used throughout the entire SCF-calculation: 231.6 MB

-------------------------   --------------------
FINAL SINGLE POINT ENERGY      -306.131937850169
-------------------------   --------------------


                            ***************************************
                            *     ORCA property calculations      *
                            ***************************************

                                    ---------------------
                                    Active property flags
                                    ---------------------
   (+) Dipole Moment
   (+) Polarizability


------------------------------------------------------------------------------
                       ORCA ELECTRIC PROPERTIES CALCULATION
------------------------------------------------------------------------------

Dipole Moment Calculation                       ... on
Quadrupole Moment Calculation                   ... off
Polarizability Calculation                      ... Analytic (CP-SCF)
GBWName                                         ... phenol_efield_x_0.064.gbw
Electron density                                ... phenol_efield_x_0.064.scfp
The origin for moment calculation is the CENTER OF MASS  = ( 0.892295,  6.685629  0.017111)

-------------
DIPOLE MOMENT
-------------
                                X             Y             Z
Electronic contribution:     21.39483       0.00497      -6.99767
Nuclear contribution   :      2.09690      -0.00184       0.79546
                        -----------------------------------------
Total Dipole Moment    :     23.49173       0.00313      -6.20221
                        -----------------------------------------
Magnitude (a.u.)       :     24.29668
Magnitude (Debye)      :     61.75726



--------------------
Rotational spectrum 
--------------------
 
Rotational constants in cm-1:     0.187876     0.084795     0.058746 
Rotational constants in MHz :  5632.368735  2542.097443  1761.161239 

 Dipole components along the rotational axes: 
x,y,z [a.u.] :    23.565162    -0.007630    -5.917090 
x,y,z [Debye]:    59.897882    -0.019393   -15.040049 

 
Transforming and storing MO dipole integrals   ... done

                ... starting polarizability calculation

The origin for moment calculation is the CENTER OF MASS  = ( 0.892295,  6.685629  0.017111)
Opening the Dipole integral file               ... (phenol_efield_x_0.064.dmo.tmp) done
Reading Dipole-MO integrals                    ... done
Solving CP-SCF equations                       ... 

           ************************************************************
           *        Program running with 16 parallel MPI-processes    *
           *              working on a common directory               *
           ************************************************************

------------------------------------------------------------------------------
                           ORCA CP-SCF CALCULATION
------------------------------------------------------------------------------

Input orbitals are from        ... phenol_efield_x_0.064.gbw
Input Perturbation             ... phenol_efield_x_0.064.cpv.tmp
Wavefunction output            ... phenol_efield_x_0.064.cpu.tmp
Perturbation mode              ... Real perturbation (singlet)
Solver                         ... POPLE
Max. number of iterations      ... 64
Convergence tolerance          ... 3.000e-05
Integral handling              ... Direct
Number of perturbations        ... 3
Number of operators            ... 1
Orbital ranges used for CP-SCF:
 Operator 0:  Orbitals   0... 24  to  25...214
Variables per perturbation     ... 4750
Memory available               ... 1992.1 MB
Memory needed per perturbation ...   1.4 MB
Perturbations treated per batch... 3
Number of batches              ... 1
     CP-SCF ITERATION   0:   2.9857e+00 (   2.2 sec   0/  3 done)
     CP-SCF ITERATION   1:   1.0892e+00 (   2.2 sec   0/  3 done)
     CP-SCF ITERATION   2:   1.0068e+00 (   2.2 sec   0/  3 done)
     CP-SCF ITERATION   3:   6.3173e-01 (   2.2 sec   0/  3 done)
     CP-SCF ITERATION   4:   3.2325e-01 (   2.2 sec   0/  3 done)
     CP-SCF ITERATION   5:   8.2203e-02 (   2.2 sec   0/  3 done)
     CP-SCF ITERATION   6:   2.3711e-02 (   2.2 sec   0/  3 done)
     CP-SCF ITERATION   7:   6.3027e-03 (   2.2 sec   0/  3 done)
     CP-SCF ITERATION   8:   2.6344e-03 (   2.2 sec   0/  3 done)
     CP-SCF ITERATION   9:   8.4916e-04 (   2.2 sec   0/  3 done)
     CP-SCF ITERATION  10:   5.5543e-04 (   2.2 sec   0/  3 done)
     CP-SCF ITERATION  11:   4.8046e-04 (   2.2 sec   0/  3 done)
     CP-SCF ITERATION  12:   3.2854e-04 (   2.2 sec   0/  3 done)
     CP-SCF ITERATION  13:   1.2719e-04 (   2.2 sec   1/  3 done)
     CP-SCF ITERATION  14:   3.3293e-05 (   1.8 sec   2/  3 done)
     CP-SCF ITERATION  15:   1.1025e-05 (   1.5 sec   3/  3 done)
                    *** THE CP-SCF HAS CONVERGED ***
done
Reading CP-SCF coefficients                    ... done
Doing the polarizability tensor                ... done
Cleaning up                                    ... done

-------------------------
THE POLARIZABILITY TENSOR
-------------------------

The raw cartesian tensor (atomic units):
  110.44587     -0.00578     -9.14008  
   -0.00578    139.42188     -0.16571  
   -9.14008     -0.16571    168.19234  
diagonalized tensor: 
  109.03368    139.42103    169.60538  

    0.98827      0.00183     -0.15268  
    0.00102     -0.99998     -0.00540  
    0.15269     -0.00518      0.98826  

Isotropic polarizability : 139.35336


Timings for individual modules:

Sum of individual times         ...       87.030 sec (=   1.450 min)
GTO integral calculation        ...        2.937 sec (=   0.049 min)   3.4 %
SCF iterations                  ...       47.257 sec (=   0.788 min)  54.3 %
Solution of CP-SCF eqns.        ...       36.836 sec (=   0.614 min)  42.3 %
                             ****ORCA TERMINATED NORMALLY****
TOTAL RUN TIME: 0 days 0 hours 1 minutes 30 seconds 220 msec
