
                                 *****************
                                 * O   R   C   A *
                                 *****************

                                            #,                                       
                                            ###                                      
                                            ####                                     
                                            #####                                    
                                            ######                                   
                                           ########,                                 
                                     ,,################,,,,,                         
                               ,,#################################,,                 
                          ,,##########################################,,             
                       ,#########################################, ''#####,          
                    ,#############################################,,   '####,        
                  ,##################################################,,,,####,       
                ,###########''''           ''''###############################       
              ,#####''   ,,,,##########,,,,          '''####'''          '####       
            ,##' ,,,,###########################,,,                        '##       
           ' ,,###''''                  '''############,,,                           
         ,,##''                                '''############,,,,        ,,,,,,###''
      ,#''                                            '''#######################'''  
     '                                                          ''''####''''         
             ,#######,   #######,   ,#######,      ##                                
            ,#'     '#,  ##    ##  ,#'     '#,    #''#        ######   ,####,        
            ##       ##  ##   ,#'  ##            #'  '#       #        #'  '#        
            ##       ##  #######   ##           ,######,      #####,   #    #        
            '#,     ,#'  ##    ##  '#,     ,#' ,#      #,         ##   #,  ,#        
             '#######'   ##     ##  '#######'  #'      '#     #####' # '####'        



                  #######################################################
                  #                        -***-                        #
                  #          Department of theory and spectroscopy      #
                  #    Directorship and core code : Frank Neese         #
                  #        Max Planck Institute fuer Kohlenforschung    #
                  #                Kaiser Wilhelm Platz 1               #
                  #                 D-45470 Muelheim/Ruhr               #
                  #                      Germany                        #
                  #                                                     #
                  #                  All rights reserved                #
                  #                        -***-                        #
                  #######################################################


                         Program Version 5.0.4 -  RELEASE  -


 With contributions from (in alphabetic order):
   Daniel Aravena         : Magnetic Suceptibility
   Michael Atanasov       : Ab Initio Ligand Field Theory (pilot matlab implementation)
   Alexander A. Auer      : GIAO ZORA, VPT2 properties, NMR spectrum
   Ute Becker             : Parallelization
   Giovanni Bistoni       : ED, misc. LED, open-shell LED, HFLD
   Martin Brehm           : Molecular dynamics
   Dmytro Bykov           : SCF Hessian
   Vijay G. Chilkuri      : MRCI spin determinant printing, contributions to CSF-ICE
   Dipayan Datta          : RHF DLPNO-CCSD density
   Achintya Kumar Dutta   : EOM-CC, STEOM-CC
   Dmitry Ganyushin       : Spin-Orbit,Spin-Spin,Magnetic field MRCI
   Miquel Garcia          : C-PCM and meta-GGA Hessian, CC/C-PCM, Gaussian charge scheme
   Yang Guo               : DLPNO-NEVPT2, F12-NEVPT2, CIM, IAO-localization
   Andreas Hansen         : Spin unrestricted coupled pair/coupled cluster methods
   Benjamin Helmich-Paris : MC-RPA, TRAH-SCF, COSX integrals
   Lee Huntington         : MR-EOM, pCC
   Robert Izsak           : Overlap fitted RIJCOSX, COSX-SCS-MP3, EOM
   Marcus Kettner         : VPT2
   Christian Kollmar      : KDIIS, OOCD, Brueckner-CCSD(T), CCSD density, CASPT2, CASPT2-K
   Simone Kossmann        : Meta GGA functionals, TD-DFT gradient, OOMP2, MP2 Hessian
   Martin Krupicka        : Initial AUTO-CI
   Lucas Lang             : DCDCAS
   Marvin Lechner         : AUTO-CI (C++ implementation), FIC-MRCC
   Dagmar Lenk            : GEPOL surface, SMD
   Dimitrios Liakos       : Extrapolation schemes; Compound Job, initial MDCI parallelization
   Dimitrios Manganas     : Further ROCIS development; embedding schemes
   Dimitrios Pantazis     : SARC Basis sets
   Anastasios Papadopoulos: AUTO-CI, single reference methods and gradients
   Taras Petrenko         : DFT Hessian,TD-DFT gradient, ASA, ECA, R-Raman, ABS, FL, XAS/XES, NRVS
   Peter Pinski           : DLPNO-MP2, DLPNO-MP2 Gradient
   Christoph Reimann      : Effective Core Potentials
   Marius Retegan         : Local ZFS, SOC
   Christoph Riplinger    : Optimizer, TS searches, QM/MM, DLPNO-CCSD(T), (RO)-DLPNO pert. Triples
   Tobias Risthaus        : Range-separated hybrids, TD-DFT gradient, RPA, STAB
   Michael Roemelt        : Original ROCIS implementation
   Masaaki Saitow         : Open-shell DLPNO-CCSD energy and density
   Barbara Sandhoefer     : DKH picture change effects
   Avijit Sen             : IP-ROCIS
   Kantharuban Sivalingam : CASSCF convergence, NEVPT2, FIC-MRCI
   Bernardo de Souza      : ESD, SOC TD-DFT
   Georgi Stoychev        : AutoAux, RI-MP2 NMR, DLPNO-MP2 response
   Willem Van den Heuvel  : Paramagnetic NMR
   Boris Wezisla          : Elementary symmetry handling
   Frank Wennmohs         : Technical directorship


 We gratefully acknowledge several colleagues who have allowed us to
 interface, adapt or use parts of their codes:
   Stefan Grimme, W. Hujo, H. Kruse, P. Pracht,  : VdW corrections, initial TS optimization,
                  C. Bannwarth, S. Ehlert          DFT functionals, gCP, sTDA/sTD-DF
   Ed Valeev, F. Pavosevic, A. Kumar             : LibInt (2-el integral package), F12 methods
   Garnet Chan, S. Sharma, J. Yang, R. Olivares  : DMRG
   Ulf Ekstrom                                   : XCFun DFT Library
   Mihaly Kallay                                 : mrcc  (arbitrary order and MRCC methods)
   Jiri Pittner, Ondrej Demel                    : Mk-CCSD
   Frank Weinhold                                : gennbo (NPA and NBO analysis)
   Christopher J. Cramer and Donald G. Truhlar   : smd solvation model
   Lars Goerigk                                  : TD-DFT with DH, B97 family of functionals
   V. Asgeirsson, H. Jonsson                     : NEB implementation
   FAccTs GmbH                                   : IRC, NEB, NEB-TS, DLPNO-Multilevel, CI-OPT
                                                   MM, QMMM, 2- and 3-layer-ONIOM, Crystal-QMMM,
                                                   LR-CPCM, SF, NACMEs, symmetry and pop. for TD-DFT,
                                                   nearIR, NL-DFT gradient (VV10), updates on ESD,
                                                   ML-optimized integration grids
   S Lehtola, MJT Oliveira, MAL Marques          : LibXC Library
   Liviu Ungur et al                             : ANISO software


 Your calculation uses the libint2 library for the computation of 2-el integrals
 For citations please refer to: http://libint.valeyev.net

 Your ORCA version has been built with support for libXC version: 5.1.0
 For citations please refer to: https://tddft.org/programs/libxc/

 This ORCA versions uses:
   CBLAS   interface :  Fast vector & matrix operations
   LAPACKE interface :  Fast linear algebra routines
   SCALAPACK package :  Parallel linear algebra routines
   Shared memory     :  Shared parallel matrices
   BLAS/LAPACK       :  OpenBLAS 0.3.15  USE64BITINT DYNAMIC_ARCH NO_AFFINITY SkylakeX SINGLE_THREADED
        Core in use  :  SkylakeX
   Copyright (c) 2011-2014, The OpenBLAS Project


================================================================================

----- Orbital basis set information -----
Your calculation utilizes the basis: aug-cc-pVDZ 
    H, B-Ne : Obtained from the ccRepo (grant-hill.group.shef.ac.uk/ccrepo) Feb. 2017
              R. A. Kendall, T. H. Dunning, Jr., R. J. Harrison, J. Chem. Phys. 96, 6796 (1992)
         He : Obtained from the ccRepo (grant-hill.group.shef.ac.uk/ccrepo) Feb. 2017
              D. E. Woon, T. H. Dunning, Jr., J. Chem. Phys. 100, 2975 (1994)
  Li-Be, Na : Obtained from the ccRepo (grant-hill.group.shef.ac.uk/ccrepo) Feb. 2017
              B. P. Prascher, D. E. Woon, K. A. Peterson, T. H. Dunning, Jr., A. K. Wilson, Theor. Chem. Acc. 128, 69 (2011)
         Mg : Obtained from the Peterson Research Group Website (tyr0.chem.wsu.edu/~kipeters) Feb. 2017
              B. P. Prascher, D. E. Woon, K. A. Peterson, T. H. Dunning, Jr., A. K. Wilson, Theor. Chem. Acc. 128, 69 (2011)
      Al-Ar : Obtained from the ccRepo (grant-hill.group.shef.ac.uk/ccrepo) Feb. 2017
              D. E. Woon, T. H. Dunning, Jr., J. Chem. Phys. 98, 1358 (1993)
      Sc-Zn : Obtained from the ccRepo (grant-hill.group.shef.ac.uk/ccrepo) Feb. 2017
              N. B. Balabanov, K. A. Peterson, J. Chem. Phys. 123, 064107 (2005)
              N. B. Balabanov, K. A. Peterson, J. Chem. Phys. 125, 074110 (2006)
      Ga-Kr : Obtained from the ccRepo (grant-hill.group.shef.ac.uk/ccrepo) Feb. 2017
              A. K. Wilson, D. E. Woon, K. A. Peterson, T. H. Dunning, Jr., J. Chem. Phys. 110, 7667 (1999)

================================================================================
                                        WARNINGS
                       Please study these warnings very carefully!
================================================================================


INFO   : the flag for use of the SHARK integral package has been found!

================================================================================
                                       INPUT FILE
================================================================================
NAME = phenol_efield_y_0.002.inp
|  1> ! hf aug-cc-pVDZ
|  2> ! MiniPrint VeryTightSCF
|  3> %pal
|  4>  nprocs 16
|  5> end
|  6> %MaxCore 2000
|  7> %scf
|  8>  maxiter=200
|  9>  efield 0.0 , 0.002 , 0.0
| 10> end
| 11> %elprop
| 12>   polar 1
| 13> end
| 14> * xyz 0 1
| 15>  C                  0.26178012    2.32984290    0.00000000
| 16>  C                  1.65694012    2.32984290    0.00000000
| 17>  C                  2.35447812    3.53759390    0.00000000
| 18>  C                  1.65682412    4.74610290   -0.00119900
| 19>  C                  0.26199912    4.74602490   -0.00167800
| 20>  C                 -0.43560188    3.53781890   -0.00068200
| 21>  H                 -0.28797888    1.37752590    0.00045000
| 22>  H                  2.20644812    1.37732990    0.00131500
| 23>  H                  3.45415812    3.53767390    0.00063400
| 24>  H                  2.20702412    5.69824590   -0.00125800
| 25>  H                 -0.28812288    5.69830590   -0.00263100
| 26>  O                 -1.86560184    3.53805688   -0.00091608
| 27>  H                 -2.18650479    3.53625036    0.90385905
| 28> *
| 29> 
| 30>                          ****END OF INPUT****
================================================================================

                       ****************************
                       * Single Point Calculation *
                       ****************************

---------------------------------
CARTESIAN COORDINATES (ANGSTROEM)
---------------------------------
  C      0.261780    2.329843    0.000000
  C      1.656940    2.329843    0.000000
  C      2.354478    3.537594    0.000000
  C      1.656824    4.746103   -0.001199
  C      0.261999    4.746025   -0.001678
  C     -0.435602    3.537819   -0.000682
  H     -0.287979    1.377526    0.000450
  H      2.206448    1.377330    0.001315
  H      3.454158    3.537674    0.000634
  H      2.207024    5.698246   -0.001258
  H     -0.288123    5.698306   -0.002631
  O     -1.865602    3.538057   -0.000916
  H     -2.186505    3.536250    0.903859

----------------------------
CARTESIAN COORDINATES (A.U.)
----------------------------
  NO LB      ZA    FRAG     MASS         X           Y           Z
   0 C     6.0000    0    12.011    0.494693    4.402765    0.000000
   1 C     6.0000    0    12.011    3.131163    4.402765    0.000000
   2 C     6.0000    0    12.011    4.449319    6.685084    0.000000
   3 C     6.0000    0    12.011    3.130944    8.968835   -0.002266
   4 C     6.0000    0    12.011    0.495107    8.968687   -0.003171
   5 C     6.0000    0    12.011   -0.823168    6.685509   -0.001289
   6 H     1.0000    0     1.008   -0.544201    2.603147    0.000850
   7 H     1.0000    0     1.008    4.169583    2.602776    0.002485
   8 H     1.0000    0     1.008    6.527413    6.685235    0.001198
   9 H     1.0000    0     1.008    4.170671   10.768124   -0.002377
  10 H     1.0000    0     1.008   -0.544473   10.768238   -0.004972
  11 O     8.0000    0    15.999   -3.525477    6.685959   -0.001731
  12 H     1.0000    0     1.008   -4.131895    6.682545    1.708046



           ************************************************************
           *        Program running with 16 parallel MPI-processes    *
           *              working on a common directory               *
           ************************************************************
------------------------------------------------------------------------------
                   ___                                                        
                  /   \      - P O W E R E D   B Y -                         
                 /     \                                                     
                 |  |  |   _    _      __       _____    __    __             
                 |  |  |  | |  | |    /  \     |  _  \  |  |  /  |          
                  \  \/   | |  | |   /    \    | | | |  |  | /  /          
                 / \  \   | |__| |  /  /\  \   | |_| |  |  |/  /          
                |  |  |   |  __  | /  /__\  \  |    /   |      \           
                |  |  |   | |  | | |   __   |  |    \   |  |\   \          
                \     /   | |  | | |  |  |  |  | |\  \  |  | \   \       
                 \___/    |_|  |_| |__|  |__|  |_| \__\ |__|  \__/        
                                                                              
                      - O R C A' S   B I G   F R I E N D -                    
                                      &                                       
                       - I N T E G R A L  F E E D E R -                       
                                                                              
 v1 FN, 2020, v2 2021                                                         
------------------------------------------------------------------------------


Reading SHARK input file phenol_efield_y_0.002.SHARKINP.tmp ... ok
----------------------
SHARK INTEGRAL PACKAGE
----------------------

Number of atoms                             ...     13
Number of basis functions                   ...    257
Number of shells                            ...    135
Maximum angular momentum                    ...      2
Integral batch strategy                     ... SHARK/LIBINT Hybrid
RI-J (if used) integral strategy            ... SPLIT-RIJ (Revised 2003 algorithm where possible)
Printlevel                                  ...      1
Contraction scheme used                     ... PARTIAL GENERAL contraction
Coulomb Range Separation                    ... NOT USED
Exchange Range Separation                   ... NOT USED
Finite Nucleus Model                        ... NOT USED
Auxiliary Coulomb fitting basis             ... NOT available
Auxiliary J/K fitting basis                 ... NOT available
Auxiliary Correlation fitting basis         ... NOT available
Auxiliary 'external' fitting basis          ... NOT available
Integral threshold                          ...     1.000000e-12
Primitive cut-off                           ...     1.000000e-14
Primitive pair pre-selection threshold      ...     1.000000e-14

Calculating pre-screening integrals         ... done (  0.0 sec) Dimension = 135
Calculating pre-screening integrals (ORCA)  ... done (  0.1 sec) Dimension = 93
Organizing shell pair data                  ... done (  0.0 sec)
Shell pair information
Total number of shell pairs                 ...      9180
Shell pairs after pre-screening             ...      8071
Total number of primitive shell pairs       ...     13080
Primitive shell pairs kept                  ...     10795
          la=0 lb=0:   2934 shell pairs
          la=1 lb=0:   2805 shell pairs
          la=1 lb=1:    559 shell pairs
          la=2 lb=0:   1207 shell pairs
          la=2 lb=1:    461 shell pairs
          la=2 lb=2:    105 shell pairs

Calculating one electron integrals          ... done (  0.0 sec)
Calculating Nuclear repulsion               ... done (  0.0 sec) ENN=    268.852435669254 Eh

SHARK setup successfully completed in   0.3 seconds

Maximum memory used throughout the entire GTOINT-calculation: 17.0 MB

An Electric Field will be added: 0.000e+00 2.000e-03 0.000e+00 au

  ... done adding electric field perturbation



           ************************************************************
           *        Program running with 16 parallel MPI-processes    *
           *              working on a common directory               *
           ************************************************************

Diagonalization of the overlap matrix:
Smallest eigenvalue                        ... 2.604e-06
Time for diagonalization                   ...    0.006 sec
Threshold for overlap eigenvalues          ... 1.000e-08
Number of eigenvalues below threshold      ... 0
Time for construction of square roots      ...    0.013 sec
Total time needed                          ...    0.019 sec

Time for model grid setup =    0.056 sec

Loading Hartree-Fock densities                     ... done
Calculating cut-offs                               ... done
Initializing the effective Hamiltonian             ... done
Setting up the integral package (SHARK)            ... done
Starting the Coulomb interaction                   ... done (   0.1 sec)
Reading the grid                                   ... done
Mapping shells                                     ... done
Starting the XC term evaluation                    ... done (   0.0 sec)
Transforming the Hamiltonian                       ... done (   0.0 sec)
Diagonalizing the Hamiltonian                      ... done (   0.0 sec)
Back transforming the eigenvectors                 ... done (   0.0 sec)
Now organizing SCF variables                       ... done
--------------
SCF ITERATIONS
--------------
ITER       Energy         Delta-E        Max-DP      RMS-DP      [F,P]     Damp
               ***  Starting incremental Fock matrix formation  ***
  0   -305.3386897594   0.000000000000 0.92847353  0.02223515  0.2211120 0.7000
  1   -305.4268721624  -0.088182402984 0.68547566  0.01661176  0.1383028 0.7000
                               ***Turning on DIIS***
  2   -305.4811424620  -0.054270299651 1.58546780  0.03835512  0.0804784 0.0000
  3   -305.0049988234   0.476143638619 0.03952642  0.00153981  0.0393710 0.0000
  4   -305.5467143525  -0.541715529039 0.06022652  0.00107907  0.0051320 0.0000
  5   -305.5790861683  -0.032371815871 0.01801609  0.00036893  0.0033024 0.0000
                      *** Initiating the SOSCF procedure ***
                           *** Shutting down DIIS ***
                      *** Re-Reading the Fockian *** 
                      *** Removing any level shift *** 
ITER      Energy       Delta-E        Grad      Rot      Max-DP    RMS-DP
  6   -305.59067803  -0.0115918589  0.000378  0.000378  0.002676  0.000063
               *** Restarting incremental Fock matrix formation ***
  7   -305.59413389  -0.0034558619  0.000197  0.000437  0.001255  0.000043
  8   -305.59413562  -0.0000017304  0.000099  0.000481  0.002048  0.000050
  9   -305.59413625  -0.0000006255  0.000033  0.000105  0.000300  0.000010
 10   -305.59413633  -0.0000000809  0.000015  0.000061  0.000319  0.000007
 11   -305.59413635  -0.0000000234  0.000006  0.000037  0.000105  0.000003
 12   -305.59413635  -0.0000000035  0.000001  0.000004  0.000019  0.000001
 13   -305.59413635  -0.0000000002  0.000001  0.000001  0.000018  0.000000
                  ***Gradient check signals convergence***
              ***Rediagonalizing the Fockian in SOSCF/NRSCF***

               *****************************************************
               *                     SUCCESS                       *
               *           SCF CONVERGED AFTER  14 CYCLES          *
               *****************************************************

Total Energy       :         -305.59413635 Eh           -8315.63921 eV
  Last Energy change         ...    4.5475e-12  Tolerance :   1.0000e-09
  Last MAX-Density change    ...    5.5115e-06  Tolerance :   1.0000e-08
             **** THE GBW FILE WAS UPDATED (phenol_efield_y_0.002.gbw) ****
             **** DENSITY phenol_efield_y_0.002.scfp WAS UPDATED ****
             **** ENERGY FILE WAS UPDATED (phenol_efield_y_0.002.en.tmp) ****
             **** THE GBW FILE WAS UPDATED (phenol_efield_y_0.002.gbw) ****
             **** DENSITY phenol_efield_y_0.002.scfp WAS UPDATED ****
----------------
ORBITAL ENERGIES
----------------

  NO   OCC          E(Eh)            E(eV) 
   0   2.0000     -20.588378      -560.2383 
   1   2.0000     -11.307527      -307.6934 
   2   2.0000     -11.252832      -306.2051 
   3   2.0000     -11.250048      -306.1294 
   4   2.0000     -11.248132      -306.0772 
   5   2.0000     -11.245404      -306.0030 
   6   2.0000     -11.245237      -305.9985 
   7   2.0000      -1.376688       -37.4616 
   8   2.0000      -1.153711       -31.3941 
   9   2.0000      -1.023435       -27.8491 
  10   2.0000      -1.010069       -27.4854 
  11   2.0000      -0.836598       -22.7650 
  12   2.0000      -0.824663       -22.4402 
  13   2.0000      -0.725274       -19.7357 
  14   2.0000      -0.677393       -18.4328 
  15   2.0000      -0.647496       -17.6193 
  16   2.0000      -0.628413       -17.1000 
  17   2.0000      -0.590855       -16.0780 
  18   2.0000      -0.588923       -16.0254 
  19   2.0000      -0.521939       -14.2027 
  20   2.0000      -0.515770       -14.0348 
  21   2.0000      -0.498701       -13.5704 
  22   2.0000      -0.476443       -12.9647 
  23   2.0000      -0.343659        -9.3514 
  24   2.0000      -0.334891        -9.1128 
  25   0.0000       0.025937         0.7058 
  26   0.0000       0.036485         0.9928 
  27   0.0000       0.044367         1.2073 
  28   0.0000       0.055728         1.5164 
  29   0.0000       0.060906         1.6573 
  30   0.0000       0.076942         2.0937 
  31   0.0000       0.102121         2.7789 
  32   0.0000       0.107405         2.9226 
  33   0.0000       0.116456         3.1689 
  34   0.0000       0.128103         3.4859 
  35   0.0000       0.136680         3.7192 
  36   0.0000       0.138619         3.7720 
  37   0.0000       0.142957         3.8901 
  38   0.0000       0.144862         3.9419 
  39   0.0000       0.145547         3.9605 
  40   0.0000       0.155478         4.2308 
  41   0.0000       0.158392         4.3101 
  42   0.0000       0.164102         4.4654 
  43   0.0000       0.168395         4.5823 
  44   0.0000       0.171396         4.6639 
  45   0.0000       0.180490         4.9114 
  46   0.0000       0.187746         5.1088 
  47   0.0000       0.188395         5.1265 
  48   0.0000       0.191650         5.2151 
  49   0.0000       0.195798         5.3279 
  50   0.0000       0.198847         5.4109 
  51   0.0000       0.232720         6.3326 
  52   0.0000       0.261469         7.1149 
  53   0.0000       0.275626         7.5002 
  54   0.0000       0.290005         7.8914 
  55   0.0000       0.295178         8.0322 
  56   0.0000       0.304884         8.2963 
  57   0.0000       0.306343         8.3360 
  58   0.0000       0.321099         8.7376 
  59   0.0000       0.347459         9.4548 
  60   0.0000       0.349589         9.5128 
  61   0.0000       0.353781         9.6269 
  62   0.0000       0.355421         9.6715 
  63   0.0000       0.366119         9.9626 
  64   0.0000       0.371508        10.1092 
  65   0.0000       0.374110        10.1800 
  66   0.0000       0.377236        10.2651 
  67   0.0000       0.399579        10.8731 
  68   0.0000       0.403900        10.9907 
  69   0.0000       0.411911        11.2087 
  70   0.0000       0.413766        11.2591 
  71   0.0000       0.431317        11.7367 
  72   0.0000       0.435627        11.8540 
  73   0.0000       0.440812        11.9951 
  74   0.0000       0.467212        12.7135 
  75   0.0000       0.484977        13.1969 
  76   0.0000       0.498942        13.5769 
  77   0.0000       0.501209        13.6386 
  78   0.0000       0.518638        14.1129 
  79   0.0000       0.524506        14.2725 
  80   0.0000       0.532511        14.4904 
  81   0.0000       0.557412        15.1680 
  82   0.0000       0.577450        15.7132 
  83   0.0000       0.581565        15.8252 
  84   0.0000       0.589105        16.0304 
  85   0.0000       0.596858        16.2413 
  86   0.0000       0.606417        16.5014 
  87   0.0000       0.618339        16.8259 
  88   0.0000       0.631883        17.1944 
  89   0.0000       0.648787        17.6544 
  90   0.0000       0.655076        17.8255 
  91   0.0000       0.667306        18.1583 
  92   0.0000       0.672957        18.3121 
  93   0.0000       0.684374        18.6228 
  94   0.0000       0.687434        18.7060 
  95   0.0000       0.689853        18.7718 
  96   0.0000       0.705078        19.1862 
  97   0.0000       0.724060        19.7027 
  98   0.0000       0.740071        20.1384 
  99   0.0000       0.751979        20.4624 
 100   0.0000       0.753856        20.5135 
 101   0.0000       0.763078        20.7644 
 102   0.0000       0.763747        20.7826 
 103   0.0000       0.771447        20.9921 
 104   0.0000       0.800900        21.7936 
 105   0.0000       0.841848        22.9078 
 106   0.0000       0.857847        23.3432 
 107   0.0000       0.866012        23.5654 
 108   0.0000       0.868147        23.6235 
 109   0.0000       0.874860        23.8062 
 110   0.0000       0.913248        24.8508 
 111   0.0000       0.918384        24.9905 
 112   0.0000       0.923022        25.1167 
 113   0.0000       0.932573        25.3766 
 114   0.0000       0.934503        25.4291 
 115   0.0000       0.938481        25.5374 
 116   0.0000       0.944929        25.7128 
 117   0.0000       0.959475        26.1086 
 118   0.0000       0.977103        26.5883 
 119   0.0000       0.980968        26.6935 
 120   0.0000       0.997090        27.1322 
 121   0.0000       1.033192        28.1146 
 122   0.0000       1.036955        28.2170 
 123   0.0000       1.042728        28.3741 
 124   0.0000       1.068617        29.0785 
 125   0.0000       1.090782        29.6817 
 126   0.0000       1.145543        31.1718 
 127   0.0000       1.161339        31.6017 
 128   0.0000       1.170696        31.8563 
 129   0.0000       1.176615        32.0173 
 130   0.0000       1.247558        33.9478 
 131   0.0000       1.292552        35.1721 
 132   0.0000       1.356177        36.9035 
 133   0.0000       1.378861        37.5207 
 134   0.0000       1.416899        38.5558 
 135   0.0000       1.438837        39.1527 
 136   0.0000       1.462229        39.7893 
 137   0.0000       1.476424        40.1755 
 138   0.0000       1.484538        40.3963 
 139   0.0000       1.519760        41.3548 
 140   0.0000       1.530211        41.6392 
 141   0.0000       1.550167        42.1822 
 142   0.0000       1.566963        42.6392 
 143   0.0000       1.587560        43.1997 
 144   0.0000       1.604638        43.6644 
 145   0.0000       1.631019        44.3823 
 146   0.0000       1.635884        44.5147 
 147   0.0000       1.639690        44.6182 
 148   0.0000       1.648328        44.8533 
 149   0.0000       1.659668        45.1619 
 150   0.0000       1.671678        45.4887 
 151   0.0000       1.702962        46.3399 
 152   0.0000       1.704302        46.3764 
 153   0.0000       1.713520        46.6273 
 154   0.0000       1.731732        47.1228 
 155   0.0000       1.767286        48.0903 
 156   0.0000       1.798166        48.9306 
 157   0.0000       1.800109        48.9835 
 158   0.0000       1.865698        50.7682 
 159   0.0000       1.876881        51.0725 
 160   0.0000       1.888246        51.3818 
 161   0.0000       1.888753        51.3956 
 162   0.0000       1.904960        51.8366 
 163   0.0000       1.930508        52.5318 
 164   0.0000       1.942753        52.8650 
 165   0.0000       1.951437        53.1013 
 166   0.0000       1.960478        53.3473 
 167   0.0000       1.977720        53.8165 
 168   0.0000       1.985951        54.0405 
 169   0.0000       2.043751        55.6133 
 170   0.0000       2.053167        55.8695 
 171   0.0000       2.094066        56.9824 
 172   0.0000       2.111128        57.4467 
 173   0.0000       2.132479        58.0277 
 174   0.0000       2.164876        58.9093 
 175   0.0000       2.179238        59.3001 
 176   0.0000       2.197477        59.7964 
 177   0.0000       2.206363        60.0382 
 178   0.0000       2.214126        60.2494 
 179   0.0000       2.246661        61.1347 
 180   0.0000       2.256319        61.3976 
 181   0.0000       2.286748        62.2256 
 182   0.0000       2.319703        63.1223 
 183   0.0000       2.354463        64.0682 
 184   0.0000       2.362783        64.2946 
 185   0.0000       2.377243        64.6881 
 186   0.0000       2.417521        65.7841 
 187   0.0000       2.452529        66.7367 
 188   0.0000       2.467527        67.1448 
 189   0.0000       2.622456        71.3606 
 190   0.0000       2.624798        71.4244 
 191   0.0000       2.667188        72.5779 
 192   0.0000       2.709811        73.7377 
 193   0.0000       2.756410        75.0057 
 194   0.0000       2.764009        75.2125 
 195   0.0000       2.769284        75.3561 
 196   0.0000       2.849969        77.5516 
 197   0.0000       2.897697        78.8504 
 198   0.0000       2.940755        80.0220 
 199   0.0000       3.006192        81.8026 
 200   0.0000       3.051762        83.0427 
 201   0.0000       3.084604        83.9363 
 202   0.0000       3.128423        85.1287 
 203   0.0000       3.202611        87.1475 
 204   0.0000       3.275699        89.1363 
 205   0.0000       3.365537        91.5809 
 206   0.0000       3.511125        95.5426 
 207   0.0000       3.550225        96.6065 
 208   0.0000       3.742100       101.8277 
 209   0.0000       3.772017       102.6418 
 210   0.0000       3.833870       104.3249 
 211   0.0000       3.923249       106.7570 
 212   0.0000       4.000549       108.8605 
 213   0.0000       4.266590       116.0998 
 214   0.0000       4.717866       128.3797 
Total SCF time: 0 days 0 hours 0 min 17 sec 

Maximum memory used throughout the entire SCF-calculation: 231.6 MB

-------------------------   --------------------
FINAL SINGLE POINT ENERGY      -305.594136352928
-------------------------   --------------------


                            ***************************************
                            *     ORCA property calculations      *
                            ***************************************

                                    ---------------------
                                    Active property flags
                                    ---------------------
   (+) Dipole Moment
   (+) Polarizability


------------------------------------------------------------------------------
                       ORCA ELECTRIC PROPERTIES CALCULATION
------------------------------------------------------------------------------

Dipole Moment Calculation                       ... on
Quadrupole Moment Calculation                   ... off
Polarizability Calculation                      ... Analytic (CP-SCF)
GBWName                                         ... phenol_efield_y_0.002.gbw
Electron density                                ... phenol_efield_y_0.002.scfp
The origin for moment calculation is the CENTER OF MASS  = ( 0.892295,  6.685629  0.017111)

-------------
DIPOLE MOMENT
-------------
                                X             Y             Z
Electronic contribution:     -1.75656       0.16450      -0.22373
Nuclear contribution   :      2.09690      -0.00184       0.79546
                        -----------------------------------------
Total Dipole Moment    :      0.34034       0.16267       0.57174
                        -----------------------------------------
Magnitude (a.u.)       :      0.68497
Magnitude (Debye)      :      1.74104



--------------------
Rotational spectrum 
--------------------
 
Rotational constants in cm-1:     0.187876     0.084795     0.058746 
Rotational constants in MHz :  5632.368735  2542.097443  1761.161239 

 Dipole components along the rotational axes: 
x,y,z [a.u.] :     0.333385    -0.162314     0.575922 
x,y,z [Debye]:     0.847397    -0.412569     1.463879 

 
Transforming and storing MO dipole integrals   ... done

                ... starting polarizability calculation

The origin for moment calculation is the CENTER OF MASS  = ( 0.892295,  6.685629  0.017111)
Opening the Dipole integral file               ... (phenol_efield_y_0.002.dmo.tmp) done
Reading Dipole-MO integrals                    ... done
Solving CP-SCF equations                       ... 

           ************************************************************
           *        Program running with 16 parallel MPI-processes    *
           *              working on a common directory               *
           ************************************************************

------------------------------------------------------------------------------
                           ORCA CP-SCF CALCULATION
------------------------------------------------------------------------------

Input orbitals are from        ... phenol_efield_y_0.002.gbw
Input Perturbation             ... phenol_efield_y_0.002.cpv.tmp
Wavefunction output            ... phenol_efield_y_0.002.cpu.tmp
Perturbation mode              ... Real perturbation (singlet)
Solver                         ... POPLE
Max. number of iterations      ... 64
Convergence tolerance          ... 3.000e-05
Integral handling              ... Direct
Number of perturbations        ... 3
Number of operators            ... 1
Orbital ranges used for CP-SCF:
 Operator 0:  Orbitals   0... 24  to  25...214
Variables per perturbation     ... 4750
Memory available               ... 1992.1 MB
Memory needed per perturbation ...   1.4 MB
Perturbations treated per batch... 3
Number of batches              ... 1
     CP-SCF ITERATION   0:   2.0038e+00 (   2.2 sec   0/  3 done)
     CP-SCF ITERATION   1:   4.1793e-01 (   2.3 sec   0/  3 done)
     CP-SCF ITERATION   2:   9.0322e-02 (   2.3 sec   0/  3 done)
     CP-SCF ITERATION   3:   3.9818e-02 (   2.3 sec   0/  3 done)
     CP-SCF ITERATION   4:   1.1405e-02 (   2.3 sec   0/  3 done)
     CP-SCF ITERATION   5:   4.2789e-03 (   2.2 sec   0/  3 done)
     CP-SCF ITERATION   6:   2.2316e-03 (   2.2 sec   0/  3 done)
     CP-SCF ITERATION   7:   8.9888e-04 (   2.2 sec   0/  3 done)
     CP-SCF ITERATION   8:   3.1557e-04 (   2.2 sec   0/  3 done)
     CP-SCF ITERATION   9:   8.5948e-05 (   2.2 sec   1/  3 done)
     CP-SCF ITERATION  10:   2.2474e-05 (   1.8 sec   3/  3 done)
                    *** THE CP-SCF HAS CONVERGED ***
done
Reading CP-SCF coefficients                    ... done
Doing the polarizability tensor                ... done
Cleaning up                                    ... done

-------------------------
THE POLARIZABILITY TENSOR
-------------------------

The raw cartesian tensor (atomic units):
   88.11209      0.00968     -1.43812  
    0.00968     81.89535     -0.02670  
   -1.43812     -0.02670     47.85617  
diagonalized tensor: 
   47.80484     81.89535     88.16341  

    0.03566     -0.00172     -0.99936  
    0.00077      1.00000     -0.00169  
    0.99936     -0.00071      0.03566  

Isotropic polarizability :  72.62120


Timings for individual modules:

Sum of individual times         ...       49.728 sec (=   0.829 min)
GTO integral calculation        ...        2.859 sec (=   0.048 min)   5.7 %
SCF iterations                  ...       19.879 sec (=   0.331 min)  40.0 %
Solution of CP-SCF eqns.        ...       26.990 sec (=   0.450 min)  54.3 %
                             ****ORCA TERMINATED NORMALLY****
TOTAL RUN TIME: 0 days 0 hours 0 minutes 52 seconds 931 msec
