
                                 *****************
                                 * O   R   C   A *
                                 *****************

                                            #,                                       
                                            ###                                      
                                            ####                                     
                                            #####                                    
                                            ######                                   
                                           ########,                                 
                                     ,,################,,,,,                         
                               ,,#################################,,                 
                          ,,##########################################,,             
                       ,#########################################, ''#####,          
                    ,#############################################,,   '####,        
                  ,##################################################,,,,####,       
                ,###########''''           ''''###############################       
              ,#####''   ,,,,##########,,,,          '''####'''          '####       
            ,##' ,,,,###########################,,,                        '##       
           ' ,,###''''                  '''############,,,                           
         ,,##''                                '''############,,,,        ,,,,,,###''
      ,#''                                            '''#######################'''  
     '                                                          ''''####''''         
             ,#######,   #######,   ,#######,      ##                                
            ,#'     '#,  ##    ##  ,#'     '#,    #''#        ######   ,####,        
            ##       ##  ##   ,#'  ##            #'  '#       #        #'  '#        
            ##       ##  #######   ##           ,######,      #####,   #    #        
            '#,     ,#'  ##    ##  '#,     ,#' ,#      #,         ##   #,  ,#        
             '#######'   ##     ##  '#######'  #'      '#     #####' # '####'        



                  #######################################################
                  #                        -***-                        #
                  #          Department of theory and spectroscopy      #
                  #    Directorship and core code : Frank Neese         #
                  #        Max Planck Institute fuer Kohlenforschung    #
                  #                Kaiser Wilhelm Platz 1               #
                  #                 D-45470 Muelheim/Ruhr               #
                  #                      Germany                        #
                  #                                                     #
                  #                  All rights reserved                #
                  #                        -***-                        #
                  #######################################################


                         Program Version 5.0.4 -  RELEASE  -


 With contributions from (in alphabetic order):
   Daniel Aravena         : Magnetic Suceptibility
   Michael Atanasov       : Ab Initio Ligand Field Theory (pilot matlab implementation)
   Alexander A. Auer      : GIAO ZORA, VPT2 properties, NMR spectrum
   Ute Becker             : Parallelization
   Giovanni Bistoni       : ED, misc. LED, open-shell LED, HFLD
   Martin Brehm           : Molecular dynamics
   Dmytro Bykov           : SCF Hessian
   Vijay G. Chilkuri      : MRCI spin determinant printing, contributions to CSF-ICE
   Dipayan Datta          : RHF DLPNO-CCSD density
   Achintya Kumar Dutta   : EOM-CC, STEOM-CC
   Dmitry Ganyushin       : Spin-Orbit,Spin-Spin,Magnetic field MRCI
   Miquel Garcia          : C-PCM and meta-GGA Hessian, CC/C-PCM, Gaussian charge scheme
   Yang Guo               : DLPNO-NEVPT2, F12-NEVPT2, CIM, IAO-localization
   Andreas Hansen         : Spin unrestricted coupled pair/coupled cluster methods
   Benjamin Helmich-Paris : MC-RPA, TRAH-SCF, COSX integrals
   Lee Huntington         : MR-EOM, pCC
   Robert Izsak           : Overlap fitted RIJCOSX, COSX-SCS-MP3, EOM
   Marcus Kettner         : VPT2
   Christian Kollmar      : KDIIS, OOCD, Brueckner-CCSD(T), CCSD density, CASPT2, CASPT2-K
   Simone Kossmann        : Meta GGA functionals, TD-DFT gradient, OOMP2, MP2 Hessian
   Martin Krupicka        : Initial AUTO-CI
   Lucas Lang             : DCDCAS
   Marvin Lechner         : AUTO-CI (C++ implementation), FIC-MRCC
   Dagmar Lenk            : GEPOL surface, SMD
   Dimitrios Liakos       : Extrapolation schemes; Compound Job, initial MDCI parallelization
   Dimitrios Manganas     : Further ROCIS development; embedding schemes
   Dimitrios Pantazis     : SARC Basis sets
   Anastasios Papadopoulos: AUTO-CI, single reference methods and gradients
   Taras Petrenko         : DFT Hessian,TD-DFT gradient, ASA, ECA, R-Raman, ABS, FL, XAS/XES, NRVS
   Peter Pinski           : DLPNO-MP2, DLPNO-MP2 Gradient
   Christoph Reimann      : Effective Core Potentials
   Marius Retegan         : Local ZFS, SOC
   Christoph Riplinger    : Optimizer, TS searches, QM/MM, DLPNO-CCSD(T), (RO)-DLPNO pert. Triples
   Tobias Risthaus        : Range-separated hybrids, TD-DFT gradient, RPA, STAB
   Michael Roemelt        : Original ROCIS implementation
   Masaaki Saitow         : Open-shell DLPNO-CCSD energy and density
   Barbara Sandhoefer     : DKH picture change effects
   Avijit Sen             : IP-ROCIS
   Kantharuban Sivalingam : CASSCF convergence, NEVPT2, FIC-MRCI
   Bernardo de Souza      : ESD, SOC TD-DFT
   Georgi Stoychev        : AutoAux, RI-MP2 NMR, DLPNO-MP2 response
   Willem Van den Heuvel  : Paramagnetic NMR
   Boris Wezisla          : Elementary symmetry handling
   Frank Wennmohs         : Technical directorship


 We gratefully acknowledge several colleagues who have allowed us to
 interface, adapt or use parts of their codes:
   Stefan Grimme, W. Hujo, H. Kruse, P. Pracht,  : VdW corrections, initial TS optimization,
                  C. Bannwarth, S. Ehlert          DFT functionals, gCP, sTDA/sTD-DF
   Ed Valeev, F. Pavosevic, A. Kumar             : LibInt (2-el integral package), F12 methods
   Garnet Chan, S. Sharma, J. Yang, R. Olivares  : DMRG
   Ulf Ekstrom                                   : XCFun DFT Library
   Mihaly Kallay                                 : mrcc  (arbitrary order and MRCC methods)
   Jiri Pittner, Ondrej Demel                    : Mk-CCSD
   Frank Weinhold                                : gennbo (NPA and NBO analysis)
   Christopher J. Cramer and Donald G. Truhlar   : smd solvation model
   Lars Goerigk                                  : TD-DFT with DH, B97 family of functionals
   V. Asgeirsson, H. Jonsson                     : NEB implementation
   FAccTs GmbH                                   : IRC, NEB, NEB-TS, DLPNO-Multilevel, CI-OPT
                                                   MM, QMMM, 2- and 3-layer-ONIOM, Crystal-QMMM,
                                                   LR-CPCM, SF, NACMEs, symmetry and pop. for TD-DFT,
                                                   nearIR, NL-DFT gradient (VV10), updates on ESD,
                                                   ML-optimized integration grids
   S Lehtola, MJT Oliveira, MAL Marques          : LibXC Library
   Liviu Ungur et al                             : ANISO software


 Your calculation uses the libint2 library for the computation of 2-el integrals
 For citations please refer to: http://libint.valeyev.net

 Your ORCA version has been built with support for libXC version: 5.1.0
 For citations please refer to: https://tddft.org/programs/libxc/

 This ORCA versions uses:
   CBLAS   interface :  Fast vector & matrix operations
   LAPACKE interface :  Fast linear algebra routines
   SCALAPACK package :  Parallel linear algebra routines
   Shared memory     :  Shared parallel matrices
   BLAS/LAPACK       :  OpenBLAS 0.3.15  USE64BITINT DYNAMIC_ARCH NO_AFFINITY SkylakeX SINGLE_THREADED
        Core in use  :  SkylakeX
   Copyright (c) 2011-2014, The OpenBLAS Project


================================================================================

----- Orbital basis set information -----
Your calculation utilizes the basis: aug-cc-pVDZ 
    H, B-Ne : Obtained from the ccRepo (grant-hill.group.shef.ac.uk/ccrepo) Feb. 2017
              R. A. Kendall, T. H. Dunning, Jr., R. J. Harrison, J. Chem. Phys. 96, 6796 (1992)
         He : Obtained from the ccRepo (grant-hill.group.shef.ac.uk/ccrepo) Feb. 2017
              D. E. Woon, T. H. Dunning, Jr., J. Chem. Phys. 100, 2975 (1994)
  Li-Be, Na : Obtained from the ccRepo (grant-hill.group.shef.ac.uk/ccrepo) Feb. 2017
              B. P. Prascher, D. E. Woon, K. A. Peterson, T. H. Dunning, Jr., A. K. Wilson, Theor. Chem. Acc. 128, 69 (2011)
         Mg : Obtained from the Peterson Research Group Website (tyr0.chem.wsu.edu/~kipeters) Feb. 2017
              B. P. Prascher, D. E. Woon, K. A. Peterson, T. H. Dunning, Jr., A. K. Wilson, Theor. Chem. Acc. 128, 69 (2011)
      Al-Ar : Obtained from the ccRepo (grant-hill.group.shef.ac.uk/ccrepo) Feb. 2017
              D. E. Woon, T. H. Dunning, Jr., J. Chem. Phys. 98, 1358 (1993)
      Sc-Zn : Obtained from the ccRepo (grant-hill.group.shef.ac.uk/ccrepo) Feb. 2017
              N. B. Balabanov, K. A. Peterson, J. Chem. Phys. 123, 064107 (2005)
              N. B. Balabanov, K. A. Peterson, J. Chem. Phys. 125, 074110 (2006)
      Ga-Kr : Obtained from the ccRepo (grant-hill.group.shef.ac.uk/ccrepo) Feb. 2017
              A. K. Wilson, D. E. Woon, K. A. Peterson, T. H. Dunning, Jr., J. Chem. Phys. 110, 7667 (1999)

================================================================================
                                        WARNINGS
                       Please study these warnings very carefully!
================================================================================


INFO   : the flag for use of the SHARK integral package has been found!

================================================================================
                                       INPUT FILE
================================================================================
NAME = phenol_efield_x_0.032.inp
|  1> ! hf aug-cc-pVDZ
|  2> ! MiniPrint VeryTightSCF
|  3> %pal
|  4>  nprocs 16
|  5> end
|  6> %MaxCore 2000
|  7> %scf
|  8>  maxiter=200
|  9>  efield 0.032 , 0.0 , 0.0
| 10> end
| 11> %elprop
| 12>   polar 1
| 13> end
| 14> * xyz 0 1
| 15>  C                  0.26178012    2.32984290    0.00000000
| 16>  C                  1.65694012    2.32984290    0.00000000
| 17>  C                  2.35447812    3.53759390    0.00000000
| 18>  C                  1.65682412    4.74610290   -0.00119900
| 19>  C                  0.26199912    4.74602490   -0.00167800
| 20>  C                 -0.43560188    3.53781890   -0.00068200
| 21>  H                 -0.28797888    1.37752590    0.00045000
| 22>  H                  2.20644812    1.37732990    0.00131500
| 23>  H                  3.45415812    3.53767390    0.00063400
| 24>  H                  2.20702412    5.69824590   -0.00125800
| 25>  H                 -0.28812288    5.69830590   -0.00263100
| 26>  O                 -1.86560184    3.53805688   -0.00091608
| 27>  H                 -2.18650479    3.53625036    0.90385905
| 28> *
| 29> 
| 30>                          ****END OF INPUT****
================================================================================

                       ****************************
                       * Single Point Calculation *
                       ****************************

---------------------------------
CARTESIAN COORDINATES (ANGSTROEM)
---------------------------------
  C      0.261780    2.329843    0.000000
  C      1.656940    2.329843    0.000000
  C      2.354478    3.537594    0.000000
  C      1.656824    4.746103   -0.001199
  C      0.261999    4.746025   -0.001678
  C     -0.435602    3.537819   -0.000682
  H     -0.287979    1.377526    0.000450
  H      2.206448    1.377330    0.001315
  H      3.454158    3.537674    0.000634
  H      2.207024    5.698246   -0.001258
  H     -0.288123    5.698306   -0.002631
  O     -1.865602    3.538057   -0.000916
  H     -2.186505    3.536250    0.903859

----------------------------
CARTESIAN COORDINATES (A.U.)
----------------------------
  NO LB      ZA    FRAG     MASS         X           Y           Z
   0 C     6.0000    0    12.011    0.494693    4.402765    0.000000
   1 C     6.0000    0    12.011    3.131163    4.402765    0.000000
   2 C     6.0000    0    12.011    4.449319    6.685084    0.000000
   3 C     6.0000    0    12.011    3.130944    8.968835   -0.002266
   4 C     6.0000    0    12.011    0.495107    8.968687   -0.003171
   5 C     6.0000    0    12.011   -0.823168    6.685509   -0.001289
   6 H     1.0000    0     1.008   -0.544201    2.603147    0.000850
   7 H     1.0000    0     1.008    4.169583    2.602776    0.002485
   8 H     1.0000    0     1.008    6.527413    6.685235    0.001198
   9 H     1.0000    0     1.008    4.170671   10.768124   -0.002377
  10 H     1.0000    0     1.008   -0.544473   10.768238   -0.004972
  11 O     8.0000    0    15.999   -3.525477    6.685959   -0.001731
  12 H     1.0000    0     1.008   -4.131895    6.682545    1.708046



           ************************************************************
           *        Program running with 16 parallel MPI-processes    *
           *              working on a common directory               *
           ************************************************************
------------------------------------------------------------------------------
                   ___                                                        
                  /   \      - P O W E R E D   B Y -                         
                 /     \                                                     
                 |  |  |   _    _      __       _____    __    __             
                 |  |  |  | |  | |    /  \     |  _  \  |  |  /  |          
                  \  \/   | |  | |   /    \    | | | |  |  | /  /          
                 / \  \   | |__| |  /  /\  \   | |_| |  |  |/  /          
                |  |  |   |  __  | /  /__\  \  |    /   |      \           
                |  |  |   | |  | | |   __   |  |    \   |  |\   \          
                \     /   | |  | | |  |  |  |  | |\  \  |  | \   \       
                 \___/    |_|  |_| |__|  |__|  |_| \__\ |__|  \__/        
                                                                              
                      - O R C A' S   B I G   F R I E N D -                    
                                      &                                       
                       - I N T E G R A L  F E E D E R -                       
                                                                              
 v1 FN, 2020, v2 2021                                                         
------------------------------------------------------------------------------


Reading SHARK input file phenol_efield_x_0.032.SHARKINP.tmp ... ok
----------------------
SHARK INTEGRAL PACKAGE
----------------------

Number of atoms                             ...     13
Number of basis functions                   ...    257
Number of shells                            ...    135
Maximum angular momentum                    ...      2
Integral batch strategy                     ... SHARK/LIBINT Hybrid
RI-J (if used) integral strategy            ... SPLIT-RIJ (Revised 2003 algorithm where possible)
Printlevel                                  ...      1
Contraction scheme used                     ... PARTIAL GENERAL contraction
Coulomb Range Separation                    ... NOT USED
Exchange Range Separation                   ... NOT USED
Finite Nucleus Model                        ... NOT USED
Auxiliary Coulomb fitting basis             ... NOT available
Auxiliary J/K fitting basis                 ... NOT available
Auxiliary Correlation fitting basis         ... NOT available
Auxiliary 'external' fitting basis          ... NOT available
Integral threshold                          ...     1.000000e-12
Primitive cut-off                           ...     1.000000e-14
Primitive pair pre-selection threshold      ...     1.000000e-14

Calculating pre-screening integrals         ... done (  0.0 sec) Dimension = 135
Calculating pre-screening integrals (ORCA)  ... done (  0.1 sec) Dimension = 93
Organizing shell pair data                  ... done (  0.0 sec)
Shell pair information
Total number of shell pairs                 ...      9180
Shell pairs after pre-screening             ...      8071
Total number of primitive shell pairs       ...     13080
Primitive shell pairs kept                  ...     10795
          la=0 lb=0:   2934 shell pairs
          la=1 lb=0:   2805 shell pairs
          la=1 lb=1:    559 shell pairs
          la=2 lb=0:   1207 shell pairs
          la=2 lb=1:    461 shell pairs
          la=2 lb=2:    105 shell pairs

Calculating one electron integrals          ... done (  0.0 sec)
Calculating Nuclear repulsion               ... done (  0.0 sec) ENN=    268.852435669254 Eh

SHARK setup successfully completed in   0.3 seconds

Maximum memory used throughout the entire GTOINT-calculation: 17.0 MB

An Electric Field will be added: 3.200e-02 0.000e+00 0.000e+00 au

  ... done adding electric field perturbation



           ************************************************************
           *        Program running with 16 parallel MPI-processes    *
           *              working on a common directory               *
           ************************************************************

Diagonalization of the overlap matrix:
Smallest eigenvalue                        ... 2.604e-06
Time for diagonalization                   ...    0.006 sec
Threshold for overlap eigenvalues          ... 1.000e-08
Number of eigenvalues below threshold      ... 0
Time for construction of square roots      ...    0.010 sec
Total time needed                          ...    0.016 sec

Time for model grid setup =    0.055 sec

Loading Hartree-Fock densities                     ... done
Calculating cut-offs                               ... done
Initializing the effective Hamiltonian             ... done
Setting up the integral package (SHARK)            ... done
Starting the Coulomb interaction                   ... done (   0.0 sec)
Reading the grid                                   ... done
Mapping shells                                     ... done
Starting the XC term evaluation                    ... done (   0.0 sec)
Transforming the Hamiltonian                       ... done (   0.0 sec)
Diagonalizing the Hamiltonian                      ... done (   0.0 sec)
Back transforming the eigenvectors                 ... done (   0.0 sec)
Now organizing SCF variables                       ... done
--------------
SCF ITERATIONS
--------------
ITER       Energy         Delta-E        Max-DP      RMS-DP      [F,P]     Damp
               ***  Starting incremental Fock matrix formation  ***
  0   -305.3440259275   0.000000000000 1.14043498  0.02529435  0.2659075 0.7000
  1   -305.4522015207  -0.108175593208 0.85501376  0.01901432  0.1585569 0.7000
                               ***Turning on DIIS***
  2   -305.5165928032  -0.064391282477 1.99480921  0.04440623  0.0848703 0.0000
  3   -304.9487295484   0.567863254776 0.11716348  0.00216896  0.0573370 0.0000
  4   -305.6086779695  -0.659948421052 0.05044873  0.00116253  0.0068099 0.0000
  5   -305.6365209107  -0.027842941283 0.03009098  0.00065337  0.0050977 0.0000
                      *** Initiating the SOSCF procedure ***
                           *** Shutting down DIIS ***
                      *** Re-Reading the Fockian *** 
                      *** Removing any level shift *** 
ITER      Energy       Delta-E        Grad      Rot      Max-DP    RMS-DP
  6   -305.64613582  -0.0096149114  0.000555  0.000555  0.013927  0.000259
               *** Restarting incremental Fock matrix formation ***
  7   -305.64972936  -0.0035935376  0.000268  0.001764  0.015280  0.000259
  8   -305.64973592  -0.0000065650  0.000158  0.002663  0.017217  0.000246
  9   -305.64973826  -0.0000023347  0.000091  0.001138  0.003734  0.000106
 10   -305.64973879  -0.0000005321  0.000061  0.001458  0.005302  0.000153
 11   -305.64973915  -0.0000003580  0.000032  0.000883  0.003356  0.000088
 12   -305.64973924  -0.0000000888  0.000016  0.000116  0.000494  0.000012
 13   -305.64973925  -0.0000000081  0.000006  0.000017  0.000277  0.000005
 14   -305.64973925  -0.0000000019  0.000003  0.000009  0.000070  0.000002
 15   -305.64973925  -0.0000000002  0.000001  0.000005  0.000020  0.000000
                  ***Gradient check signals convergence***
              ***Rediagonalizing the Fockian in SOSCF/NRSCF***

               *****************************************************
               *                     SUCCESS                       *
               *           SCF CONVERGED AFTER  16 CYCLES          *
               *****************************************************

Total Energy       :         -305.64973925 Eh           -8317.15224 eV
  Last Energy change         ...   -8.3219e-11  Tolerance :   1.0000e-09
  Last MAX-Density change    ...    3.0465e-05  Tolerance :   1.0000e-08
             **** THE GBW FILE WAS UPDATED (phenol_efield_x_0.032.gbw) ****
             **** DENSITY phenol_efield_x_0.032.scfp WAS UPDATED ****
             **** ENERGY FILE WAS UPDATED (phenol_efield_x_0.032.en.tmp) ****
             **** THE GBW FILE WAS UPDATED (phenol_efield_x_0.032.gbw) ****
             **** DENSITY phenol_efield_x_0.032.scfp WAS UPDATED ****
----------------
ORBITAL ENERGIES
----------------

  NO   OCC          E(Eh)            E(eV) 
   0   2.0000     -20.665550      -562.3382 
   1   2.0000     -11.311569      -307.8035 
   2   2.0000     -11.242148      -305.9144 
   3   2.0000     -11.242114      -305.9135 
   4   2.0000     -11.218710      -305.2766 
   5   2.0000     -11.218604      -305.2737 
   6   2.0000     -11.200118      -304.7707 
   7   2.0000      -1.447809       -39.3969 
   8   2.0000      -1.137901       -30.9639 
   9   2.0000      -1.006823       -27.3970 
  10   2.0000      -0.994612       -27.0648 
  11   2.0000      -0.829818       -22.5805 
  12   2.0000      -0.820918       -22.3383 
  13   2.0000      -0.750965       -20.4348 
  14   2.0000      -0.684883       -18.6366 
  15   2.0000      -0.648475       -17.6459 
  16   2.0000      -0.645235       -17.5577 
  17   2.0000      -0.581132       -15.8134 
  18   2.0000      -0.575018       -15.6470 
  19   2.0000      -0.554070       -15.0770 
  20   2.0000      -0.489648       -13.3240 
  21   2.0000      -0.475796       -12.9471 
  22   2.0000      -0.470726       -12.8091 
  23   2.0000      -0.326083        -8.8732 
  24   2.0000      -0.313677        -8.5356 
  25   0.0000      -0.195435        -5.3180 
  26   0.0000      -0.088760        -2.4153 
  27   0.0000      -0.083097        -2.2612 
  28   0.0000      -0.036096        -0.9822 
  29   0.0000       0.022347         0.6081 
  30   0.0000       0.027664         0.7528 
  31   0.0000       0.059757         1.6261 
  32   0.0000       0.088667         2.4128 
  33   0.0000       0.097777         2.6606 
  34   0.0000       0.099966         2.7202 
  35   0.0000       0.109273         2.9735 
  36   0.0000       0.119508         3.2520 
  37   0.0000       0.130438         3.5494 
  38   0.0000       0.136464         3.7134 
  39   0.0000       0.154566         4.2059 
  40   0.0000       0.171548         4.6681 
  41   0.0000       0.176442         4.8012 
  42   0.0000       0.184755         5.0274 
  43   0.0000       0.202640         5.5141 
  44   0.0000       0.229090         6.2339 
  45   0.0000       0.232167         6.3176 
  46   0.0000       0.232352         6.3226 
  47   0.0000       0.248198         6.7538 
  48   0.0000       0.260068         7.0768 
  49   0.0000       0.279286         7.5998 
  50   0.0000       0.279419         7.6034 
  51   0.0000       0.293245         7.9796 
  52   0.0000       0.300163         8.1678 
  53   0.0000       0.307817         8.3761 
  54   0.0000       0.313227         8.5233 
  55   0.0000       0.318412         8.6644 
  56   0.0000       0.322644         8.7796 
  57   0.0000       0.323586         8.8052 
  58   0.0000       0.343603         9.3499 
  59   0.0000       0.346152         9.4193 
  60   0.0000       0.361602         9.8397 
  61   0.0000       0.366355         9.9690 
  62   0.0000       0.374336        10.1862 
  63   0.0000       0.382589        10.4108 
  64   0.0000       0.394759        10.7419 
  65   0.0000       0.405098        11.0233 
  66   0.0000       0.411721        11.2035 
  67   0.0000       0.419525        11.4159 
  68   0.0000       0.437081        11.8936 
  69   0.0000       0.442132        12.0310 
  70   0.0000       0.443553        12.0697 
  71   0.0000       0.454298        12.3621 
  72   0.0000       0.464965        12.6523 
  73   0.0000       0.480529        13.0758 
  74   0.0000       0.504133        13.7182 
  75   0.0000       0.510662        13.8958 
  76   0.0000       0.520872        14.1736 
  77   0.0000       0.536557        14.6005 
  78   0.0000       0.554013        15.0755 
  79   0.0000       0.554875        15.0989 
  80   0.0000       0.555214        15.1081 
  81   0.0000       0.567595        15.4451 
  82   0.0000       0.580283        15.7903 
  83   0.0000       0.610467        16.6116 
  84   0.0000       0.615809        16.7570 
  85   0.0000       0.620447        16.8832 
  86   0.0000       0.627382        17.0719 
  87   0.0000       0.640292        17.4232 
  88   0.0000       0.658814        17.9272 
  89   0.0000       0.669684        18.2230 
  90   0.0000       0.674484        18.3537 
  91   0.0000       0.692750        18.8507 
  92   0.0000       0.695311        18.9204 
  93   0.0000       0.697764        18.9871 
  94   0.0000       0.720866        19.6157 
  95   0.0000       0.729496        19.8506 
  96   0.0000       0.733566        19.9613 
  97   0.0000       0.741331        20.1727 
  98   0.0000       0.761632        20.7251 
  99   0.0000       0.783598        21.3228 
 100   0.0000       0.786641        21.4056 
 101   0.0000       0.791247        21.5309 
 102   0.0000       0.814436        22.1619 
 103   0.0000       0.822516        22.3818 
 104   0.0000       0.854218        23.2445 
 105   0.0000       0.859017        23.3750 
 106   0.0000       0.872272        23.7357 
 107   0.0000       0.884391        24.0655 
 108   0.0000       0.889375        24.2011 
 109   0.0000       0.901064        24.5192 
 110   0.0000       0.907450        24.6930 
 111   0.0000       0.917563        24.9682 
 112   0.0000       0.941924        25.6310 
 113   0.0000       0.948820        25.8187 
 114   0.0000       0.963746        26.2249 
 115   0.0000       0.967151        26.3175 
 116   0.0000       0.968467        26.3533 
 117   0.0000       0.991506        26.9802 
 118   0.0000       0.992485        27.0069 
 119   0.0000       1.020070        27.7575 
 120   0.0000       1.025067        27.8935 
 121   0.0000       1.030640        28.0452 
 122   0.0000       1.047155        28.4945 
 123   0.0000       1.057241        28.7690 
 124   0.0000       1.101335        29.9688 
 125   0.0000       1.106496        30.1093 
 126   0.0000       1.134050        30.8591 
 127   0.0000       1.166251        31.7353 
 128   0.0000       1.182368        32.1739 
 129   0.0000       1.198731        32.6191 
 130   0.0000       1.204477        32.7755 
 131   0.0000       1.274949        34.6931 
 132   0.0000       1.315197        35.7883 
 133   0.0000       1.373836        37.3840 
 134   0.0000       1.390724        37.8435 
 135   0.0000       1.444956        39.3193 
 136   0.0000       1.470218        40.0067 
 137   0.0000       1.480032        40.2737 
 138   0.0000       1.499215        40.7957 
 139   0.0000       1.522278        41.4233 
 140   0.0000       1.550717        42.1971 
 141   0.0000       1.566566        42.6284 
 142   0.0000       1.586213        43.1630 
 143   0.0000       1.605644        43.6918 
 144   0.0000       1.616901        43.9981 
 145   0.0000       1.646005        44.7901 
 146   0.0000       1.648335        44.8535 
 147   0.0000       1.663281        45.2602 
 148   0.0000       1.677245        45.6402 
 149   0.0000       1.683423        45.8083 
 150   0.0000       1.706188        46.4277 
 151   0.0000       1.718640        46.7666 
 152   0.0000       1.719195        46.7817 
 153   0.0000       1.733065        47.1591 
 154   0.0000       1.748334        47.5746 
 155   0.0000       1.765318        48.0368 
 156   0.0000       1.793499        48.8036 
 157   0.0000       1.818439        49.4823 
 158   0.0000       1.855359        50.4869 
 159   0.0000       1.880249        51.1642 
 160   0.0000       1.900706        51.7208 
 161   0.0000       1.907466        51.9048 
 162   0.0000       1.911458        52.0134 
 163   0.0000       1.934980        52.6535 
 164   0.0000       1.939667        52.7810 
 165   0.0000       1.992137        54.2088 
 166   0.0000       1.994359        54.2693 
 167   0.0000       2.008603        54.6569 
 168   0.0000       2.014380        54.8141 
 169   0.0000       2.041553        55.5535 
 170   0.0000       2.059280        56.0359 
 171   0.0000       2.111445        57.4553 
 172   0.0000       2.133662        58.0599 
 173   0.0000       2.148143        58.4540 
 174   0.0000       2.159023        58.7500 
 175   0.0000       2.188161        59.5429 
 176   0.0000       2.206843        60.0512 
 177   0.0000       2.227267        60.6070 
 178   0.0000       2.232081        60.7380 
 179   0.0000       2.262649        61.5698 
 180   0.0000       2.269423        61.7541 
 181   0.0000       2.291334        62.3504 
 182   0.0000       2.351016        63.9744 
 183   0.0000       2.382003        64.8176 
 184   0.0000       2.393543        65.1316 
 185   0.0000       2.394442        65.1561 
 186   0.0000       2.425069        65.9895 
 187   0.0000       2.457852        66.8816 
 188   0.0000       2.465613        67.0927 
 189   0.0000       2.552374        69.4536 
 190   0.0000       2.640965        71.8643 
 191   0.0000       2.684809        73.0574 
 192   0.0000       2.710853        73.7661 
 193   0.0000       2.774565        75.4998 
 194   0.0000       2.787971        75.8645 
 195   0.0000       2.810481        76.4771 
 196   0.0000       2.847920        77.4959 
 197   0.0000       2.904078        79.0240 
 198   0.0000       2.967220        80.7422 
 199   0.0000       3.010802        81.9281 
 200   0.0000       3.058038        83.2134 
 201   0.0000       3.108614        84.5897 
 202   0.0000       3.160557        86.0031 
 203   0.0000       3.224449        87.7417 
 204   0.0000       3.300957        89.8236 
 205   0.0000       3.309729        90.0623 
 206   0.0000       3.497294        95.1662 
 207   0.0000       3.572545        97.2139 
 208   0.0000       3.690637       100.4273 
 209   0.0000       3.701263       100.7165 
 210   0.0000       3.806892       103.5908 
 211   0.0000       3.851853       104.8143 
 212   0.0000       3.959127       107.7333 
 213   0.0000       4.185788       113.9011 
 214   0.0000       4.735368       128.8559 
Total SCF time: 0 days 0 hours 0 min 19 sec 

Maximum memory used throughout the entire SCF-calculation: 231.6 MB

-------------------------   --------------------
FINAL SINGLE POINT ENERGY      -305.649739248715
-------------------------   --------------------


                            ***************************************
                            *     ORCA property calculations      *
                            ***************************************

                                    ---------------------
                                    Active property flags
                                    ---------------------
   (+) Dipole Moment
   (+) Polarizability


------------------------------------------------------------------------------
                       ORCA ELECTRIC PROPERTIES CALCULATION
------------------------------------------------------------------------------

Dipole Moment Calculation                       ... on
Quadrupole Moment Calculation                   ... off
Polarizability Calculation                      ... Analytic (CP-SCF)
GBWName                                         ... phenol_efield_x_0.032.gbw
Electron density                                ... phenol_efield_x_0.032.scfp
The origin for moment calculation is the CENTER OF MASS  = ( 0.892295,  6.685629  0.017111)

-------------
DIPOLE MOMENT
-------------
                                X             Y             Z
Electronic contribution:      1.06358       0.00081      -0.27828
Nuclear contribution   :      2.09690      -0.00184       0.79546
                        -----------------------------------------
Total Dipole Moment    :      3.16048      -0.00103       0.51719
                        -----------------------------------------
Magnitude (a.u.)       :      3.20251
Magnitude (Debye)      :      8.14014



--------------------
Rotational spectrum 
--------------------
 
Rotational constants in cm-1:     0.187876     0.084795     0.058746 
Rotational constants in MHz :  5632.368735  2542.097443  1761.161239 

 Dipole components along the rotational axes: 
x,y,z [a.u.] :     3.153977     0.001275     0.555445 
x,y,z [Debye]:     8.016773     0.003241     1.411830 

 
Transforming and storing MO dipole integrals   ... done

                ... starting polarizability calculation

The origin for moment calculation is the CENTER OF MASS  = ( 0.892295,  6.685629  0.017111)
Opening the Dipole integral file               ... (phenol_efield_x_0.032.dmo.tmp) done
Reading Dipole-MO integrals                    ... done
Solving CP-SCF equations                       ... 

           ************************************************************
           *        Program running with 16 parallel MPI-processes    *
           *              working on a common directory               *
           ************************************************************

------------------------------------------------------------------------------
                           ORCA CP-SCF CALCULATION
------------------------------------------------------------------------------

Input orbitals are from        ... phenol_efield_x_0.032.gbw
Input Perturbation             ... phenol_efield_x_0.032.cpv.tmp
Wavefunction output            ... phenol_efield_x_0.032.cpu.tmp
Perturbation mode              ... Real perturbation (singlet)
Solver                         ... POPLE
Max. number of iterations      ... 64
Convergence tolerance          ... 3.000e-05
Integral handling              ... Direct
Number of perturbations        ... 3
Number of operators            ... 1
Orbital ranges used for CP-SCF:
 Operator 0:  Orbitals   0... 24  to  25...214
Variables per perturbation     ... 4750
Memory available               ... 1992.1 MB
Memory needed per perturbation ...   1.4 MB
Perturbations treated per batch... 3
Number of batches              ... 1
     CP-SCF ITERATION   0:   2.4381e+00 (   2.2 sec   0/  3 done)
     CP-SCF ITERATION   1:   1.3424e+00 (   2.2 sec   0/  3 done)
     CP-SCF ITERATION   2:   7.8395e-01 (   2.2 sec   0/  3 done)
     CP-SCF ITERATION   3:   3.0414e-01 (   2.2 sec   0/  3 done)
     CP-SCF ITERATION   4:   8.8243e-02 (   2.2 sec   0/  3 done)
     CP-SCF ITERATION   5:   2.5883e-02 (   2.2 sec   0/  3 done)
     CP-SCF ITERATION   6:   9.3281e-03 (   2.2 sec   0/  3 done)
     CP-SCF ITERATION   7:   2.8471e-03 (   2.2 sec   0/  3 done)
     CP-SCF ITERATION   8:   1.0376e-03 (   2.2 sec   0/  3 done)
     CP-SCF ITERATION   9:   4.3835e-04 (   2.2 sec   0/  3 done)
     CP-SCF ITERATION  10:   2.0951e-04 (   2.2 sec   0/  3 done)
     CP-SCF ITERATION  11:   6.5734e-05 (   2.2 sec   2/  3 done)
     CP-SCF ITERATION  12:   2.2655e-05 (   1.5 sec   3/  3 done)
                    *** THE CP-SCF HAS CONVERGED ***
done
Reading CP-SCF coefficients                    ... done
Doing the polarizability tensor                ... done
Cleaning up                                    ... done

-------------------------
THE POLARIZABILITY TENSOR
-------------------------

The raw cartesian tensor (atomic units):
   97.12630      0.00026     -5.46673  
    0.00026     84.01983     -0.02336  
   -5.46673     -0.02336     50.34718  
diagonalized tensor: 
   49.71680     84.01985     97.75667  

    0.11455     -0.00029     -0.99342  
    0.00068      1.00000     -0.00021  
    0.99342     -0.00065      0.11455  

Isotropic polarizability :  77.16444


Timings for individual modules:

Sum of individual times         ...       55.477 sec (=   0.925 min)
GTO integral calculation        ...        2.851 sec (=   0.048 min)   5.1 %
SCF iterations                  ...       22.043 sec (=   0.367 min)  39.7 %
Solution of CP-SCF eqns.        ...       30.583 sec (=   0.510 min)  55.1 %
                             ****ORCA TERMINATED NORMALLY****
TOTAL RUN TIME: 0 days 0 hours 0 minutes 58 seconds 624 msec
