
                                 *****************
                                 * O   R   C   A *
                                 *****************

                                            #,                                       
                                            ###                                      
                                            ####                                     
                                            #####                                    
                                            ######                                   
                                           ########,                                 
                                     ,,################,,,,,                         
                               ,,#################################,,                 
                          ,,##########################################,,             
                       ,#########################################, ''#####,          
                    ,#############################################,,   '####,        
                  ,##################################################,,,,####,       
                ,###########''''           ''''###############################       
              ,#####''   ,,,,##########,,,,          '''####'''          '####       
            ,##' ,,,,###########################,,,                        '##       
           ' ,,###''''                  '''############,,,                           
         ,,##''                                '''############,,,,        ,,,,,,###''
      ,#''                                            '''#######################'''  
     '                                                          ''''####''''         
             ,#######,   #######,   ,#######,      ##                                
            ,#'     '#,  ##    ##  ,#'     '#,    #''#        ######   ,####,        
            ##       ##  ##   ,#'  ##            #'  '#       #        #'  '#        
            ##       ##  #######   ##           ,######,      #####,   #    #        
            '#,     ,#'  ##    ##  '#,     ,#' ,#      #,         ##   #,  ,#        
             '#######'   ##     ##  '#######'  #'      '#     #####' # '####'        



                  #######################################################
                  #                        -***-                        #
                  #          Department of theory and spectroscopy      #
                  #    Directorship and core code : Frank Neese         #
                  #        Max Planck Institute fuer Kohlenforschung    #
                  #                Kaiser Wilhelm Platz 1               #
                  #                 D-45470 Muelheim/Ruhr               #
                  #                      Germany                        #
                  #                                                     #
                  #                  All rights reserved                #
                  #                        -***-                        #
                  #######################################################


                         Program Version 5.0.4 -  RELEASE  -


 With contributions from (in alphabetic order):
   Daniel Aravena         : Magnetic Suceptibility
   Michael Atanasov       : Ab Initio Ligand Field Theory (pilot matlab implementation)
   Alexander A. Auer      : GIAO ZORA, VPT2 properties, NMR spectrum
   Ute Becker             : Parallelization
   Giovanni Bistoni       : ED, misc. LED, open-shell LED, HFLD
   Martin Brehm           : Molecular dynamics
   Dmytro Bykov           : SCF Hessian
   Vijay G. Chilkuri      : MRCI spin determinant printing, contributions to CSF-ICE
   Dipayan Datta          : RHF DLPNO-CCSD density
   Achintya Kumar Dutta   : EOM-CC, STEOM-CC
   Dmitry Ganyushin       : Spin-Orbit,Spin-Spin,Magnetic field MRCI
   Miquel Garcia          : C-PCM and meta-GGA Hessian, CC/C-PCM, Gaussian charge scheme
   Yang Guo               : DLPNO-NEVPT2, F12-NEVPT2, CIM, IAO-localization
   Andreas Hansen         : Spin unrestricted coupled pair/coupled cluster methods
   Benjamin Helmich-Paris : MC-RPA, TRAH-SCF, COSX integrals
   Lee Huntington         : MR-EOM, pCC
   Robert Izsak           : Overlap fitted RIJCOSX, COSX-SCS-MP3, EOM
   Marcus Kettner         : VPT2
   Christian Kollmar      : KDIIS, OOCD, Brueckner-CCSD(T), CCSD density, CASPT2, CASPT2-K
   Simone Kossmann        : Meta GGA functionals, TD-DFT gradient, OOMP2, MP2 Hessian
   Martin Krupicka        : Initial AUTO-CI
   Lucas Lang             : DCDCAS
   Marvin Lechner         : AUTO-CI (C++ implementation), FIC-MRCC
   Dagmar Lenk            : GEPOL surface, SMD
   Dimitrios Liakos       : Extrapolation schemes; Compound Job, initial MDCI parallelization
   Dimitrios Manganas     : Further ROCIS development; embedding schemes
   Dimitrios Pantazis     : SARC Basis sets
   Anastasios Papadopoulos: AUTO-CI, single reference methods and gradients
   Taras Petrenko         : DFT Hessian,TD-DFT gradient, ASA, ECA, R-Raman, ABS, FL, XAS/XES, NRVS
   Peter Pinski           : DLPNO-MP2, DLPNO-MP2 Gradient
   Christoph Reimann      : Effective Core Potentials
   Marius Retegan         : Local ZFS, SOC
   Christoph Riplinger    : Optimizer, TS searches, QM/MM, DLPNO-CCSD(T), (RO)-DLPNO pert. Triples
   Tobias Risthaus        : Range-separated hybrids, TD-DFT gradient, RPA, STAB
   Michael Roemelt        : Original ROCIS implementation
   Masaaki Saitow         : Open-shell DLPNO-CCSD energy and density
   Barbara Sandhoefer     : DKH picture change effects
   Avijit Sen             : IP-ROCIS
   Kantharuban Sivalingam : CASSCF convergence, NEVPT2, FIC-MRCI
   Bernardo de Souza      : ESD, SOC TD-DFT
   Georgi Stoychev        : AutoAux, RI-MP2 NMR, DLPNO-MP2 response
   Willem Van den Heuvel  : Paramagnetic NMR
   Boris Wezisla          : Elementary symmetry handling
   Frank Wennmohs         : Technical directorship


 We gratefully acknowledge several colleagues who have allowed us to
 interface, adapt or use parts of their codes:
   Stefan Grimme, W. Hujo, H. Kruse, P. Pracht,  : VdW corrections, initial TS optimization,
                  C. Bannwarth, S. Ehlert          DFT functionals, gCP, sTDA/sTD-DF
   Ed Valeev, F. Pavosevic, A. Kumar             : LibInt (2-el integral package), F12 methods
   Garnet Chan, S. Sharma, J. Yang, R. Olivares  : DMRG
   Ulf Ekstrom                                   : XCFun DFT Library
   Mihaly Kallay                                 : mrcc  (arbitrary order and MRCC methods)
   Jiri Pittner, Ondrej Demel                    : Mk-CCSD
   Frank Weinhold                                : gennbo (NPA and NBO analysis)
   Christopher J. Cramer and Donald G. Truhlar   : smd solvation model
   Lars Goerigk                                  : TD-DFT with DH, B97 family of functionals
   V. Asgeirsson, H. Jonsson                     : NEB implementation
   FAccTs GmbH                                   : IRC, NEB, NEB-TS, DLPNO-Multilevel, CI-OPT
                                                   MM, QMMM, 2- and 3-layer-ONIOM, Crystal-QMMM,
                                                   LR-CPCM, SF, NACMEs, symmetry and pop. for TD-DFT,
                                                   nearIR, NL-DFT gradient (VV10), updates on ESD,
                                                   ML-optimized integration grids
   S Lehtola, MJT Oliveira, MAL Marques          : LibXC Library
   Liviu Ungur et al                             : ANISO software


 Your calculation uses the libint2 library for the computation of 2-el integrals
 For citations please refer to: http://libint.valeyev.net

 Your ORCA version has been built with support for libXC version: 5.1.0
 For citations please refer to: https://tddft.org/programs/libxc/

 This ORCA versions uses:
   CBLAS   interface :  Fast vector & matrix operations
   LAPACKE interface :  Fast linear algebra routines
   SCALAPACK package :  Parallel linear algebra routines
   Shared memory     :  Shared parallel matrices
   BLAS/LAPACK       :  OpenBLAS 0.3.15  USE64BITINT DYNAMIC_ARCH NO_AFFINITY SkylakeX SINGLE_THREADED
        Core in use  :  SkylakeX
   Copyright (c) 2011-2014, The OpenBLAS Project


================================================================================

----- Orbital basis set information -----
Your calculation utilizes the basis: aug-cc-pVDZ 
    H, B-Ne : Obtained from the ccRepo (grant-hill.group.shef.ac.uk/ccrepo) Feb. 2017
              R. A. Kendall, T. H. Dunning, Jr., R. J. Harrison, J. Chem. Phys. 96, 6796 (1992)
         He : Obtained from the ccRepo (grant-hill.group.shef.ac.uk/ccrepo) Feb. 2017
              D. E. Woon, T. H. Dunning, Jr., J. Chem. Phys. 100, 2975 (1994)
  Li-Be, Na : Obtained from the ccRepo (grant-hill.group.shef.ac.uk/ccrepo) Feb. 2017
              B. P. Prascher, D. E. Woon, K. A. Peterson, T. H. Dunning, Jr., A. K. Wilson, Theor. Chem. Acc. 128, 69 (2011)
         Mg : Obtained from the Peterson Research Group Website (tyr0.chem.wsu.edu/~kipeters) Feb. 2017
              B. P. Prascher, D. E. Woon, K. A. Peterson, T. H. Dunning, Jr., A. K. Wilson, Theor. Chem. Acc. 128, 69 (2011)
      Al-Ar : Obtained from the ccRepo (grant-hill.group.shef.ac.uk/ccrepo) Feb. 2017
              D. E. Woon, T. H. Dunning, Jr., J. Chem. Phys. 98, 1358 (1993)
      Sc-Zn : Obtained from the ccRepo (grant-hill.group.shef.ac.uk/ccrepo) Feb. 2017
              N. B. Balabanov, K. A. Peterson, J. Chem. Phys. 123, 064107 (2005)
              N. B. Balabanov, K. A. Peterson, J. Chem. Phys. 125, 074110 (2006)
      Ga-Kr : Obtained from the ccRepo (grant-hill.group.shef.ac.uk/ccrepo) Feb. 2017
              A. K. Wilson, D. E. Woon, K. A. Peterson, T. H. Dunning, Jr., J. Chem. Phys. 110, 7667 (1999)

================================================================================
                                        WARNINGS
                       Please study these warnings very carefully!
================================================================================


INFO   : the flag for use of the SHARK integral package has been found!

================================================================================
                                       INPUT FILE
================================================================================
NAME = phenol_efield_z_-0.004.inp
|  1> ! hf aug-cc-pVDZ
|  2> ! MiniPrint VeryTightSCF
|  3> %pal
|  4>  nprocs 16
|  5> end
|  6> %MaxCore 2000
|  7> %scf
|  8>  maxiter=200
|  9>  efield 0.0 , 0.0 , -0.004
| 10> end
| 11> %elprop
| 12>   polar 1
| 13> end
| 14> * xyz 0 1
| 15>  C                  0.26178012    2.32984290    0.00000000
| 16>  C                  1.65694012    2.32984290    0.00000000
| 17>  C                  2.35447812    3.53759390    0.00000000
| 18>  C                  1.65682412    4.74610290   -0.00119900
| 19>  C                  0.26199912    4.74602490   -0.00167800
| 20>  C                 -0.43560188    3.53781890   -0.00068200
| 21>  H                 -0.28797888    1.37752590    0.00045000
| 22>  H                  2.20644812    1.37732990    0.00131500
| 23>  H                  3.45415812    3.53767390    0.00063400
| 24>  H                  2.20702412    5.69824590   -0.00125800
| 25>  H                 -0.28812288    5.69830590   -0.00263100
| 26>  O                 -1.86560184    3.53805688   -0.00091608
| 27>  H                 -2.18650479    3.53625036    0.90385905
| 28> *
| 29> 
| 30>                          ****END OF INPUT****
================================================================================

                       ****************************
                       * Single Point Calculation *
                       ****************************

---------------------------------
CARTESIAN COORDINATES (ANGSTROEM)
---------------------------------
  C      0.261780    2.329843    0.000000
  C      1.656940    2.329843    0.000000
  C      2.354478    3.537594    0.000000
  C      1.656824    4.746103   -0.001199
  C      0.261999    4.746025   -0.001678
  C     -0.435602    3.537819   -0.000682
  H     -0.287979    1.377526    0.000450
  H      2.206448    1.377330    0.001315
  H      3.454158    3.537674    0.000634
  H      2.207024    5.698246   -0.001258
  H     -0.288123    5.698306   -0.002631
  O     -1.865602    3.538057   -0.000916
  H     -2.186505    3.536250    0.903859

----------------------------
CARTESIAN COORDINATES (A.U.)
----------------------------
  NO LB      ZA    FRAG     MASS         X           Y           Z
   0 C     6.0000    0    12.011    0.494693    4.402765    0.000000
   1 C     6.0000    0    12.011    3.131163    4.402765    0.000000
   2 C     6.0000    0    12.011    4.449319    6.685084    0.000000
   3 C     6.0000    0    12.011    3.130944    8.968835   -0.002266
   4 C     6.0000    0    12.011    0.495107    8.968687   -0.003171
   5 C     6.0000    0    12.011   -0.823168    6.685509   -0.001289
   6 H     1.0000    0     1.008   -0.544201    2.603147    0.000850
   7 H     1.0000    0     1.008    4.169583    2.602776    0.002485
   8 H     1.0000    0     1.008    6.527413    6.685235    0.001198
   9 H     1.0000    0     1.008    4.170671   10.768124   -0.002377
  10 H     1.0000    0     1.008   -0.544473   10.768238   -0.004972
  11 O     8.0000    0    15.999   -3.525477    6.685959   -0.001731
  12 H     1.0000    0     1.008   -4.131895    6.682545    1.708046



           ************************************************************
           *        Program running with 16 parallel MPI-processes    *
           *              working on a common directory               *
           ************************************************************
------------------------------------------------------------------------------
                   ___                                                        
                  /   \      - P O W E R E D   B Y -                         
                 /     \                                                     
                 |  |  |   _    _      __       _____    __    __             
                 |  |  |  | |  | |    /  \     |  _  \  |  |  /  |          
                  \  \/   | |  | |   /    \    | | | |  |  | /  /          
                 / \  \   | |__| |  /  /\  \   | |_| |  |  |/  /          
                |  |  |   |  __  | /  /__\  \  |    /   |      \           
                |  |  |   | |  | | |   __   |  |    \   |  |\   \          
                \     /   | |  | | |  |  |  |  | |\  \  |  | \   \       
                 \___/    |_|  |_| |__|  |__|  |_| \__\ |__|  \__/        
                                                                              
                      - O R C A' S   B I G   F R I E N D -                    
                                      &                                       
                       - I N T E G R A L  F E E D E R -                       
                                                                              
 v1 FN, 2020, v2 2021                                                         
------------------------------------------------------------------------------


Reading SHARK input file phenol_efield_z_-0.004.SHARKINP.tmp ... ok
----------------------
SHARK INTEGRAL PACKAGE
----------------------

Number of atoms                             ...     13
Number of basis functions                   ...    257
Number of shells                            ...    135
Maximum angular momentum                    ...      2
Integral batch strategy                     ... SHARK/LIBINT Hybrid
RI-J (if used) integral strategy            ... SPLIT-RIJ (Revised 2003 algorithm where possible)
Printlevel                                  ...      1
Contraction scheme used                     ... PARTIAL GENERAL contraction
Coulomb Range Separation                    ... NOT USED
Exchange Range Separation                   ... NOT USED
Finite Nucleus Model                        ... NOT USED
Auxiliary Coulomb fitting basis             ... NOT available
Auxiliary J/K fitting basis                 ... NOT available
Auxiliary Correlation fitting basis         ... NOT available
Auxiliary 'external' fitting basis          ... NOT available
Integral threshold                          ...     1.000000e-12
Primitive cut-off                           ...     1.000000e-14
Primitive pair pre-selection threshold      ...     1.000000e-14

Calculating pre-screening integrals         ... done (  0.0 sec) Dimension = 135
Calculating pre-screening integrals (ORCA)  ... done (  0.1 sec) Dimension = 93
Organizing shell pair data                  ... done (  0.0 sec)
Shell pair information
Total number of shell pairs                 ...      9180
Shell pairs after pre-screening             ...      8071
Total number of primitive shell pairs       ...     13080
Primitive shell pairs kept                  ...     10795
          la=0 lb=0:   2934 shell pairs
          la=1 lb=0:   2805 shell pairs
          la=1 lb=1:    559 shell pairs
          la=2 lb=0:   1207 shell pairs
          la=2 lb=1:    461 shell pairs
          la=2 lb=2:    105 shell pairs

Calculating one electron integrals          ... done (  0.0 sec)
Calculating Nuclear repulsion               ... done (  0.0 sec) ENN=    268.852435669254 Eh

SHARK setup successfully completed in   0.3 seconds

Maximum memory used throughout the entire GTOINT-calculation: 17.0 MB

An Electric Field will be added: 0.000e+00 0.000e+00 -4.000e-03 au

  ... done adding electric field perturbation



           ************************************************************
           *        Program running with 16 parallel MPI-processes    *
           *              working on a common directory               *
           ************************************************************

Diagonalization of the overlap matrix:
Smallest eigenvalue                        ... 2.604e-06
Time for diagonalization                   ...    0.006 sec
Threshold for overlap eigenvalues          ... 1.000e-08
Number of eigenvalues below threshold      ... 0
Time for construction of square roots      ...    0.017 sec
Total time needed                          ...    0.023 sec

Time for model grid setup =    0.056 sec

Loading Hartree-Fock densities                     ... done
Calculating cut-offs                               ... done
Initializing the effective Hamiltonian             ... done
Setting up the integral package (SHARK)            ... done
Starting the Coulomb interaction                   ... done (   0.0 sec)
Reading the grid                                   ... done
Mapping shells                                     ... done
Starting the XC term evaluation                    ... done (   0.0 sec)
Transforming the Hamiltonian                       ... done (   0.0 sec)
Diagonalizing the Hamiltonian                      ... done (   0.0 sec)
Back transforming the eigenvectors                 ... done (   0.0 sec)
Now organizing SCF variables                       ... done
--------------
SCF ITERATIONS
--------------
ITER       Energy         Delta-E        Max-DP      RMS-DP      [F,P]     Damp
               ***  Starting incremental Fock matrix formation  ***
  0   -305.3382108493   0.000000000000 0.91735599  0.02212129  0.2187293 0.7000
  1   -305.4257781816  -0.087567332254 0.67636589  0.01652407  0.1369327 0.7000
                               ***Turning on DIIS***
  2   -305.4797106827  -0.053932501151 1.56589479  0.03815302  0.0797928 0.0000
  3   -305.0058128189   0.473897863786 0.03675494  0.00153346  0.0388064 0.0000
  4   -305.5449213500  -0.539108531099 0.05795762  0.00107386  0.0050981 0.0000
                      *** Initiating the SOSCF procedure ***
                           *** Shutting down DIIS ***
                      *** Re-Reading the Fockian *** 
                      *** Removing any level shift *** 
ITER      Energy       Delta-E        Grad      Rot      Max-DP    RMS-DP
  5   -305.57711788  -0.0321965330  0.001079  0.001079  0.017467  0.000363
               *** Restarting incremental Fock matrix formation ***
  6   -305.59205930  -0.0149414197  0.000364  0.000823  0.002097  0.000065
  7   -305.59206783  -0.0000085237  0.000211  0.000516  0.003232  0.000076
  8   -305.59207026  -0.0000024382  0.000066  0.000179  0.000909  0.000025
  9   -305.59207049  -0.0000002214  0.000044  0.000241  0.000615  0.000015
 10   -305.59207059  -0.0000001004  0.000009  0.000023  0.000392  0.000009
 11   -305.59207059  -0.0000000077  0.000006  0.000016  0.000097  0.000002
 12   -305.59207060  -0.0000000015  0.000002  0.000004  0.000059  0.000001
                  ***Gradient check signals convergence***
              ***Rediagonalizing the Fockian in SOSCF/NRSCF***

               *****************************************************
               *                     SUCCESS                       *
               *           SCF CONVERGED AFTER  13 CYCLES          *
               *****************************************************

Total Energy       :         -305.59207060 Eh           -8315.58300 eV
  Last Energy change         ...   -1.2744e-10  Tolerance :   1.0000e-09
  Last MAX-Density change    ...    1.8540e-05  Tolerance :   1.0000e-08
             **** THE GBW FILE WAS UPDATED (phenol_efield_z_-0.004.gbw) ****
             **** DENSITY phenol_efield_z_-0.004.scfp WAS UPDATED ****
             **** ENERGY FILE WAS UPDATED (phenol_efield_z_-0.004.en.tmp) ****
             **** THE GBW FILE WAS UPDATED (phenol_efield_z_-0.004.gbw) ****
             **** DENSITY phenol_efield_z_-0.004.scfp WAS UPDATED ****
----------------
ORBITAL ENERGIES
----------------

  NO   OCC          E(Eh)            E(eV) 
   0   2.0000     -20.589352      -560.2648 
   1   2.0000     -11.307766      -307.6999 
   2   2.0000     -11.251580      -306.1711 
   3   2.0000     -11.251471      -306.1681 
   4   2.0000     -11.246860      -306.0426 
   5   2.0000     -11.246835      -306.0419 
   6   2.0000     -11.245426      -306.0036 
   7   2.0000      -1.377509       -37.4839 
   8   2.0000      -1.153813       -31.3968 
   9   2.0000      -1.023518       -27.8513 
  10   2.0000      -1.010215       -27.4893 
  11   2.0000      -0.836687       -22.7674 
  12   2.0000      -0.824888       -22.4464 
  13   2.0000      -0.725670       -19.7465 
  14   2.0000      -0.677662       -18.4401 
  15   2.0000      -0.647649       -17.6234 
  16   2.0000      -0.628479       -17.1018 
  17   2.0000      -0.590939       -16.0803 
  18   2.0000      -0.589067       -16.0293 
  19   2.0000      -0.522224       -14.2104 
  20   2.0000      -0.515871       -14.0376 
  21   2.0000      -0.498756       -13.5718 
  22   2.0000      -0.476789       -12.9741 
  23   2.0000      -0.343726        -9.3532 
  24   2.0000      -0.334962        -9.1148 
  25   0.0000       0.023509         0.6397 
  26   0.0000       0.037066         1.0086 
  27   0.0000       0.040589         1.1045 
  28   0.0000       0.054824         1.4918 
  29   0.0000       0.057296         1.5591 
  30   0.0000       0.074455         2.0260 
  31   0.0000       0.102231         2.7819 
  32   0.0000       0.107895         2.9360 
  33   0.0000       0.120450         3.2776 
  34   0.0000       0.123612         3.3636 
  35   0.0000       0.126233         3.4350 
  36   0.0000       0.132101         3.5946 
  37   0.0000       0.145627         3.9627 
  38   0.0000       0.150899         4.1062 
  39   0.0000       0.153322         4.1721 
  40   0.0000       0.155682         4.2363 
  41   0.0000       0.159106         4.3295 
  42   0.0000       0.162811         4.4303 
  43   0.0000       0.167242         4.5509 
  44   0.0000       0.170356         4.6356 
  45   0.0000       0.181844         4.9482 
  46   0.0000       0.187700         5.1076 
  47   0.0000       0.188058         5.1173 
  48   0.0000       0.194370         5.2891 
  49   0.0000       0.196300         5.3416 
  50   0.0000       0.196610         5.3500 
  51   0.0000       0.234206         6.3731 
  52   0.0000       0.262488         7.1427 
  53   0.0000       0.277865         7.5611 
  54   0.0000       0.293907         7.9976 
  55   0.0000       0.295633         8.0446 
  56   0.0000       0.305218         8.3054 
  57   0.0000       0.306458         8.3392 
  58   0.0000       0.321979         8.7615 
  59   0.0000       0.347695         9.4613 
  60   0.0000       0.350656         9.5418 
  61   0.0000       0.353794         9.6272 
  62   0.0000       0.355911         9.6848 
  63   0.0000       0.366110         9.9624 
  64   0.0000       0.371293        10.1034 
  65   0.0000       0.374635        10.1943 
  66   0.0000       0.376748        10.2518 
  67   0.0000       0.399047        10.8586 
  68   0.0000       0.402803        10.9608 
  69   0.0000       0.411264        11.1911 
  70   0.0000       0.412654        11.2289 
  71   0.0000       0.429753        11.6942 
  72   0.0000       0.434671        11.8280 
  73   0.0000       0.439576        11.9615 
  74   0.0000       0.466686        12.6992 
  75   0.0000       0.484030        13.1711 
  76   0.0000       0.499696        13.5974 
  77   0.0000       0.501515        13.6469 
  78   0.0000       0.518535        14.1101 
  79   0.0000       0.523677        14.2500 
  80   0.0000       0.532470        14.4892 
  81   0.0000       0.556941        15.1551 
  82   0.0000       0.577667        15.7191 
  83   0.0000       0.581503        15.8235 
  84   0.0000       0.589314        16.0361 
  85   0.0000       0.596586        16.2339 
  86   0.0000       0.606490        16.5034 
  87   0.0000       0.618455        16.8290 
  88   0.0000       0.630794        17.1648 
  89   0.0000       0.648846        17.6560 
  90   0.0000       0.655243        17.8301 
  91   0.0000       0.666120        18.1260 
  92   0.0000       0.673923        18.3384 
  93   0.0000       0.684399        18.6235 
  94   0.0000       0.687657        18.7121 
  95   0.0000       0.688847        18.7445 
  96   0.0000       0.705413        19.1953 
  97   0.0000       0.724110        19.7040 
  98   0.0000       0.740424        20.1480 
  99   0.0000       0.752476        20.4759 
 100   0.0000       0.753884        20.5142 
 101   0.0000       0.763056        20.7638 
 102   0.0000       0.763119        20.7655 
 103   0.0000       0.770803        20.9746 
 104   0.0000       0.800104        21.7719 
 105   0.0000       0.841840        22.9076 
 106   0.0000       0.858072        23.3493 
 107   0.0000       0.865279        23.5454 
 108   0.0000       0.867788        23.6137 
 109   0.0000       0.874702        23.8019 
 110   0.0000       0.913054        24.8455 
 111   0.0000       0.919028        25.0080 
 112   0.0000       0.923931        25.1414 
 113   0.0000       0.932604        25.3774 
 114   0.0000       0.933501        25.4019 
 115   0.0000       0.938837        25.5471 
 116   0.0000       0.944454        25.6999 
 117   0.0000       0.959455        26.1081 
 118   0.0000       0.976814        26.5805 
 119   0.0000       0.980986        26.6940 
 120   0.0000       0.996838        27.1253 
 121   0.0000       1.032911        28.1069 
 122   0.0000       1.034796        28.1582 
 123   0.0000       1.042443        28.3663 
 124   0.0000       1.068636        29.0791 
 125   0.0000       1.091152        29.6918 
 126   0.0000       1.145388        31.1676 
 127   0.0000       1.161145        31.5964 
 128   0.0000       1.170643        31.8548 
 129   0.0000       1.176581        32.0164 
 130   0.0000       1.248570        33.9753 
 131   0.0000       1.292273        35.1645 
 132   0.0000       1.355905        36.8961 
 133   0.0000       1.378918        37.5223 
 134   0.0000       1.416548        38.5462 
 135   0.0000       1.438627        39.1470 
 136   0.0000       1.462268        39.7903 
 137   0.0000       1.476563        40.1793 
 138   0.0000       1.484545        40.3965 
 139   0.0000       1.519133        41.3377 
 140   0.0000       1.530265        41.6406 
 141   0.0000       1.549835        42.1732 
 142   0.0000       1.567189        42.6454 
 143   0.0000       1.587366        43.1944 
 144   0.0000       1.604649        43.6647 
 145   0.0000       1.631463        44.3944 
 146   0.0000       1.635617        44.5074 
 147   0.0000       1.639247        44.6062 
 148   0.0000       1.648299        44.8525 
 149   0.0000       1.659474        45.1566 
 150   0.0000       1.671912        45.4950 
 151   0.0000       1.702506        46.3275 
 152   0.0000       1.704046        46.3694 
 153   0.0000       1.713477        46.6261 
 154   0.0000       1.731789        47.1244 
 155   0.0000       1.767351        48.0921 
 156   0.0000       1.798818        48.9483 
 157   0.0000       1.800114        48.9836 
 158   0.0000       1.866093        50.7790 
 159   0.0000       1.876767        51.0694 
 160   0.0000       1.888283        51.3828 
 161   0.0000       1.888642        51.3926 
 162   0.0000       1.904976        51.8370 
 163   0.0000       1.930337        52.5271 
 164   0.0000       1.942654        52.8623 
 165   0.0000       1.951583        53.1053 
 166   0.0000       1.960422        53.3458 
 167   0.0000       1.977722        53.8166 
 168   0.0000       1.985828        54.0371 
 169   0.0000       2.043424        55.6044 
 170   0.0000       2.053077        55.8671 
 171   0.0000       2.094297        56.9887 
 172   0.0000       2.110804        57.4379 
 173   0.0000       2.131620        58.0043 
 174   0.0000       2.164833        58.9081 
 175   0.0000       2.179209        59.2993 
 176   0.0000       2.197531        59.7979 
 177   0.0000       2.206255        60.0353 
 178   0.0000       2.213898        60.2432 
 179   0.0000       2.246392        61.1274 
 180   0.0000       2.255700        61.3807 
 181   0.0000       2.286637        62.2226 
 182   0.0000       2.319625        63.1202 
 183   0.0000       2.354429        64.0673 
 184   0.0000       2.362644        64.2908 
 185   0.0000       2.376624        64.6712 
 186   0.0000       2.417293        65.7779 
 187   0.0000       2.452386        66.7328 
 188   0.0000       2.466515        67.1173 
 189   0.0000       2.622151        71.3523 
 190   0.0000       2.622581        71.3641 
 191   0.0000       2.666885        72.5696 
 192   0.0000       2.709820        73.7379 
 193   0.0000       2.756717        75.0141 
 194   0.0000       2.763867        75.2086 
 195   0.0000       2.768915        75.3460 
 196   0.0000       2.848823        77.5204 
 197   0.0000       2.897622        78.8483 
 198   0.0000       2.940696        80.0204 
 199   0.0000       3.005824        81.7926 
 200   0.0000       3.051692        83.0408 
 201   0.0000       3.084457        83.9324 
 202   0.0000       3.128370        85.1273 
 203   0.0000       3.202463        87.1434 
 204   0.0000       3.275601        89.1336 
 205   0.0000       3.365356        91.5760 
 206   0.0000       3.510985        95.5388 
 207   0.0000       3.550177        96.6052 
 208   0.0000       3.742000       101.8250 
 209   0.0000       3.771538       102.6288 
 210   0.0000       3.833658       104.3191 
 211   0.0000       3.922780       106.7443 
 212   0.0000       4.000105       108.8484 
 213   0.0000       4.265646       116.0741 
 214   0.0000       4.717897       128.3805 
Total SCF time: 0 days 0 hours 0 min 16 sec 

Maximum memory used throughout the entire SCF-calculation: 231.6 MB

-------------------------   --------------------
FINAL SINGLE POINT ENERGY      -305.592070595731
-------------------------   --------------------


                            ***************************************
                            *     ORCA property calculations      *
                            ***************************************

                                    ---------------------
                                    Active property flags
                                    ---------------------
   (+) Dipole Moment
   (+) Polarizability


------------------------------------------------------------------------------
                       ORCA ELECTRIC PROPERTIES CALCULATION
------------------------------------------------------------------------------

Dipole Moment Calculation                       ... on
Quadrupole Moment Calculation                   ... off
Polarizability Calculation                      ... Analytic (CP-SCF)
GBWName                                         ... phenol_efield_z_-0.004.gbw
Electron density                                ... phenol_efield_z_-0.004.scfp
The origin for moment calculation is the CENTER OF MASS  = ( 0.892295,  6.685629  0.017111)

-------------
DIPOLE MOMENT
-------------
                                X             Y             Z
Electronic contribution:     -1.75111       0.00083      -0.41523
Nuclear contribution   :      2.09690      -0.00184       0.79546
                        -----------------------------------------
Total Dipole Moment    :      0.34579      -0.00101       0.38024
                        -----------------------------------------
Magnitude (a.u.)       :      0.51395
Magnitude (Debye)      :      1.30637



--------------------
Rotational spectrum 
--------------------
 
Rotational constants in cm-1:     0.187876     0.084795     0.058746 
Rotational constants in MHz :  5632.368735  2542.097443  1761.161239 

 Dipole components along the rotational axes: 
x,y,z [a.u.] :     0.341153     0.001238     0.384399 
x,y,z [Debye]:     0.867142     0.003146     0.977063 

 
Transforming and storing MO dipole integrals   ... done

                ... starting polarizability calculation

The origin for moment calculation is the CENTER OF MASS  = ( 0.892295,  6.685629  0.017111)
Opening the Dipole integral file               ... (phenol_efield_z_-0.004.dmo.tmp) done
Reading Dipole-MO integrals                    ... done
Solving CP-SCF equations                       ... 

           ************************************************************
           *        Program running with 16 parallel MPI-processes    *
           *              working on a common directory               *
           ************************************************************

------------------------------------------------------------------------------
                           ORCA CP-SCF CALCULATION
------------------------------------------------------------------------------

Input orbitals are from        ... phenol_efield_z_-0.004.gbw
Input Perturbation             ... phenol_efield_z_-0.004.cpv.tmp
Wavefunction output            ... phenol_efield_z_-0.004.cpu.tmp
Perturbation mode              ... Real perturbation (singlet)
Solver                         ... POPLE
Max. number of iterations      ... 64
Convergence tolerance          ... 3.000e-05
Integral handling              ... Direct
Number of perturbations        ... 3
Number of operators            ... 1
Orbital ranges used for CP-SCF:
 Operator 0:  Orbitals   0... 24  to  25...214
Variables per perturbation     ... 4750
Memory available               ... 1992.1 MB
Memory needed per perturbation ...   1.4 MB
Perturbations treated per batch... 3
Number of batches              ... 1
     CP-SCF ITERATION   0:   2.0046e+00 (   2.2 sec   0/  3 done)
     CP-SCF ITERATION   1:   4.1838e-01 (   2.2 sec   0/  3 done)
     CP-SCF ITERATION   2:   9.0378e-02 (   2.2 sec   0/  3 done)
     CP-SCF ITERATION   3:   3.9813e-02 (   2.2 sec   0/  3 done)
     CP-SCF ITERATION   4:   1.1481e-02 (   2.2 sec   0/  3 done)
     CP-SCF ITERATION   5:   4.3101e-03 (   2.3 sec   0/  3 done)
     CP-SCF ITERATION   6:   2.2561e-03 (   2.2 sec   0/  3 done)
     CP-SCF ITERATION   7:   9.0888e-04 (   2.2 sec   0/  3 done)
     CP-SCF ITERATION   8:   3.2017e-04 (   2.2 sec   0/  3 done)
     CP-SCF ITERATION   9:   8.8081e-05 (   2.2 sec   2/  3 done)
     CP-SCF ITERATION  10:   2.2467e-05 (   1.5 sec   3/  3 done)
                    *** THE CP-SCF HAS CONVERGED ***
done
Reading CP-SCF coefficients                    ... done
Doing the polarizability tensor                ... done
Cleaning up                                    ... done

-------------------------
THE POLARIZABILITY TENSOR
-------------------------

The raw cartesian tensor (atomic units):
   88.15359      0.00312     -1.29036  
    0.00312     81.92315     -0.02330  
   -1.29036     -0.02330     47.95818  
diagonalized tensor: 
   47.91678     81.92316     88.19497  

    0.03205     -0.00064     -0.99949  
    0.00068      1.00000     -0.00062  
    0.99949     -0.00066      0.03205  

Isotropic polarizability :  72.67830


Timings for individual modules:

Sum of individual times         ...       48.281 sec (=   0.805 min)
GTO integral calculation        ...        2.895 sec (=   0.048 min)   6.0 %
SCF iterations                  ...       18.740 sec (=   0.312 min)  38.8 %
Solution of CP-SCF eqns.        ...       26.646 sec (=   0.444 min)  55.2 %
                             ****ORCA TERMINATED NORMALLY****
TOTAL RUN TIME: 0 days 0 hours 0 minutes 51 seconds 660 msec
