
                                 *****************
                                 * O   R   C   A *
                                 *****************

                                            #,                                       
                                            ###                                      
                                            ####                                     
                                            #####                                    
                                            ######                                   
                                           ########,                                 
                                     ,,################,,,,,                         
                               ,,#################################,,                 
                          ,,##########################################,,             
                       ,#########################################, ''#####,          
                    ,#############################################,,   '####,        
                  ,##################################################,,,,####,       
                ,###########''''           ''''###############################       
              ,#####''   ,,,,##########,,,,          '''####'''          '####       
            ,##' ,,,,###########################,,,                        '##       
           ' ,,###''''                  '''############,,,                           
         ,,##''                                '''############,,,,        ,,,,,,###''
      ,#''                                            '''#######################'''  
     '                                                          ''''####''''         
             ,#######,   #######,   ,#######,      ##                                
            ,#'     '#,  ##    ##  ,#'     '#,    #''#        ######   ,####,        
            ##       ##  ##   ,#'  ##            #'  '#       #        #'  '#        
            ##       ##  #######   ##           ,######,      #####,   #    #        
            '#,     ,#'  ##    ##  '#,     ,#' ,#      #,         ##   #,  ,#        
             '#######'   ##     ##  '#######'  #'      '#     #####' # '####'        



                  #######################################################
                  #                        -***-                        #
                  #          Department of theory and spectroscopy      #
                  #    Directorship and core code : Frank Neese         #
                  #        Max Planck Institute fuer Kohlenforschung    #
                  #                Kaiser Wilhelm Platz 1               #
                  #                 D-45470 Muelheim/Ruhr               #
                  #                      Germany                        #
                  #                                                     #
                  #                  All rights reserved                #
                  #                        -***-                        #
                  #######################################################


                         Program Version 5.0.4 -  RELEASE  -


 With contributions from (in alphabetic order):
   Daniel Aravena         : Magnetic Suceptibility
   Michael Atanasov       : Ab Initio Ligand Field Theory (pilot matlab implementation)
   Alexander A. Auer      : GIAO ZORA, VPT2 properties, NMR spectrum
   Ute Becker             : Parallelization
   Giovanni Bistoni       : ED, misc. LED, open-shell LED, HFLD
   Martin Brehm           : Molecular dynamics
   Dmytro Bykov           : SCF Hessian
   Vijay G. Chilkuri      : MRCI spin determinant printing, contributions to CSF-ICE
   Dipayan Datta          : RHF DLPNO-CCSD density
   Achintya Kumar Dutta   : EOM-CC, STEOM-CC
   Dmitry Ganyushin       : Spin-Orbit,Spin-Spin,Magnetic field MRCI
   Miquel Garcia          : C-PCM and meta-GGA Hessian, CC/C-PCM, Gaussian charge scheme
   Yang Guo               : DLPNO-NEVPT2, F12-NEVPT2, CIM, IAO-localization
   Andreas Hansen         : Spin unrestricted coupled pair/coupled cluster methods
   Benjamin Helmich-Paris : MC-RPA, TRAH-SCF, COSX integrals
   Lee Huntington         : MR-EOM, pCC
   Robert Izsak           : Overlap fitted RIJCOSX, COSX-SCS-MP3, EOM
   Marcus Kettner         : VPT2
   Christian Kollmar      : KDIIS, OOCD, Brueckner-CCSD(T), CCSD density, CASPT2, CASPT2-K
   Simone Kossmann        : Meta GGA functionals, TD-DFT gradient, OOMP2, MP2 Hessian
   Martin Krupicka        : Initial AUTO-CI
   Lucas Lang             : DCDCAS
   Marvin Lechner         : AUTO-CI (C++ implementation), FIC-MRCC
   Dagmar Lenk            : GEPOL surface, SMD
   Dimitrios Liakos       : Extrapolation schemes; Compound Job, initial MDCI parallelization
   Dimitrios Manganas     : Further ROCIS development; embedding schemes
   Dimitrios Pantazis     : SARC Basis sets
   Anastasios Papadopoulos: AUTO-CI, single reference methods and gradients
   Taras Petrenko         : DFT Hessian,TD-DFT gradient, ASA, ECA, R-Raman, ABS, FL, XAS/XES, NRVS
   Peter Pinski           : DLPNO-MP2, DLPNO-MP2 Gradient
   Christoph Reimann      : Effective Core Potentials
   Marius Retegan         : Local ZFS, SOC
   Christoph Riplinger    : Optimizer, TS searches, QM/MM, DLPNO-CCSD(T), (RO)-DLPNO pert. Triples
   Tobias Risthaus        : Range-separated hybrids, TD-DFT gradient, RPA, STAB
   Michael Roemelt        : Original ROCIS implementation
   Masaaki Saitow         : Open-shell DLPNO-CCSD energy and density
   Barbara Sandhoefer     : DKH picture change effects
   Avijit Sen             : IP-ROCIS
   Kantharuban Sivalingam : CASSCF convergence, NEVPT2, FIC-MRCI
   Bernardo de Souza      : ESD, SOC TD-DFT
   Georgi Stoychev        : AutoAux, RI-MP2 NMR, DLPNO-MP2 response
   Willem Van den Heuvel  : Paramagnetic NMR
   Boris Wezisla          : Elementary symmetry handling
   Frank Wennmohs         : Technical directorship


 We gratefully acknowledge several colleagues who have allowed us to
 interface, adapt or use parts of their codes:
   Stefan Grimme, W. Hujo, H. Kruse, P. Pracht,  : VdW corrections, initial TS optimization,
                  C. Bannwarth, S. Ehlert          DFT functionals, gCP, sTDA/sTD-DF
   Ed Valeev, F. Pavosevic, A. Kumar             : LibInt (2-el integral package), F12 methods
   Garnet Chan, S. Sharma, J. Yang, R. Olivares  : DMRG
   Ulf Ekstrom                                   : XCFun DFT Library
   Mihaly Kallay                                 : mrcc  (arbitrary order and MRCC methods)
   Jiri Pittner, Ondrej Demel                    : Mk-CCSD
   Frank Weinhold                                : gennbo (NPA and NBO analysis)
   Christopher J. Cramer and Donald G. Truhlar   : smd solvation model
   Lars Goerigk                                  : TD-DFT with DH, B97 family of functionals
   V. Asgeirsson, H. Jonsson                     : NEB implementation
   FAccTs GmbH                                   : IRC, NEB, NEB-TS, DLPNO-Multilevel, CI-OPT
                                                   MM, QMMM, 2- and 3-layer-ONIOM, Crystal-QMMM,
                                                   LR-CPCM, SF, NACMEs, symmetry and pop. for TD-DFT,
                                                   nearIR, NL-DFT gradient (VV10), updates on ESD,
                                                   ML-optimized integration grids
   S Lehtola, MJT Oliveira, MAL Marques          : LibXC Library
   Liviu Ungur et al                             : ANISO software


 Your calculation uses the libint2 library for the computation of 2-el integrals
 For citations please refer to: http://libint.valeyev.net

 Your ORCA version has been built with support for libXC version: 5.1.0
 For citations please refer to: https://tddft.org/programs/libxc/

 This ORCA versions uses:
   CBLAS   interface :  Fast vector & matrix operations
   LAPACKE interface :  Fast linear algebra routines
   SCALAPACK package :  Parallel linear algebra routines
   Shared memory     :  Shared parallel matrices
   BLAS/LAPACK       :  OpenBLAS 0.3.15  USE64BITINT DYNAMIC_ARCH NO_AFFINITY SkylakeX SINGLE_THREADED
        Core in use  :  SkylakeX
   Copyright (c) 2011-2014, The OpenBLAS Project


================================================================================

----- Orbital basis set information -----
Your calculation utilizes the basis: aug-cc-pVDZ 
    H, B-Ne : Obtained from the ccRepo (grant-hill.group.shef.ac.uk/ccrepo) Feb. 2017
              R. A. Kendall, T. H. Dunning, Jr., R. J. Harrison, J. Chem. Phys. 96, 6796 (1992)
         He : Obtained from the ccRepo (grant-hill.group.shef.ac.uk/ccrepo) Feb. 2017
              D. E. Woon, T. H. Dunning, Jr., J. Chem. Phys. 100, 2975 (1994)
  Li-Be, Na : Obtained from the ccRepo (grant-hill.group.shef.ac.uk/ccrepo) Feb. 2017
              B. P. Prascher, D. E. Woon, K. A. Peterson, T. H. Dunning, Jr., A. K. Wilson, Theor. Chem. Acc. 128, 69 (2011)
         Mg : Obtained from the Peterson Research Group Website (tyr0.chem.wsu.edu/~kipeters) Feb. 2017
              B. P. Prascher, D. E. Woon, K. A. Peterson, T. H. Dunning, Jr., A. K. Wilson, Theor. Chem. Acc. 128, 69 (2011)
      Al-Ar : Obtained from the ccRepo (grant-hill.group.shef.ac.uk/ccrepo) Feb. 2017
              D. E. Woon, T. H. Dunning, Jr., J. Chem. Phys. 98, 1358 (1993)
      Sc-Zn : Obtained from the ccRepo (grant-hill.group.shef.ac.uk/ccrepo) Feb. 2017
              N. B. Balabanov, K. A. Peterson, J. Chem. Phys. 123, 064107 (2005)
              N. B. Balabanov, K. A. Peterson, J. Chem. Phys. 125, 074110 (2006)
      Ga-Kr : Obtained from the ccRepo (grant-hill.group.shef.ac.uk/ccrepo) Feb. 2017
              A. K. Wilson, D. E. Woon, K. A. Peterson, T. H. Dunning, Jr., J. Chem. Phys. 110, 7667 (1999)

================================================================================
                                        WARNINGS
                       Please study these warnings very carefully!
================================================================================


INFO   : the flag for use of the SHARK integral package has been found!

================================================================================
                                       INPUT FILE
================================================================================
NAME = phenol_efield_z_0.008.inp
|  1> ! hf aug-cc-pVDZ
|  2> ! MiniPrint VeryTightSCF
|  3> %pal
|  4>  nprocs 16
|  5> end
|  6> %MaxCore 2000
|  7> %scf
|  8>  maxiter=200
|  9>  efield 0.0 , 0.0 , 0.008
| 10> end
| 11> %elprop
| 12>   polar 1
| 13> end
| 14> * xyz 0 1
| 15>  C                  0.26178012    2.32984290    0.00000000
| 16>  C                  1.65694012    2.32984290    0.00000000
| 17>  C                  2.35447812    3.53759390    0.00000000
| 18>  C                  1.65682412    4.74610290   -0.00119900
| 19>  C                  0.26199912    4.74602490   -0.00167800
| 20>  C                 -0.43560188    3.53781890   -0.00068200
| 21>  H                 -0.28797888    1.37752590    0.00045000
| 22>  H                  2.20644812    1.37732990    0.00131500
| 23>  H                  3.45415812    3.53767390    0.00063400
| 24>  H                  2.20702412    5.69824590   -0.00125800
| 25>  H                 -0.28812288    5.69830590   -0.00263100
| 26>  O                 -1.86560184    3.53805688   -0.00091608
| 27>  H                 -2.18650479    3.53625036    0.90385905
| 28> *
| 29> 
| 30>                          ****END OF INPUT****
================================================================================

                       ****************************
                       * Single Point Calculation *
                       ****************************

---------------------------------
CARTESIAN COORDINATES (ANGSTROEM)
---------------------------------
  C      0.261780    2.329843    0.000000
  C      1.656940    2.329843    0.000000
  C      2.354478    3.537594    0.000000
  C      1.656824    4.746103   -0.001199
  C      0.261999    4.746025   -0.001678
  C     -0.435602    3.537819   -0.000682
  H     -0.287979    1.377526    0.000450
  H      2.206448    1.377330    0.001315
  H      3.454158    3.537674    0.000634
  H      2.207024    5.698246   -0.001258
  H     -0.288123    5.698306   -0.002631
  O     -1.865602    3.538057   -0.000916
  H     -2.186505    3.536250    0.903859

----------------------------
CARTESIAN COORDINATES (A.U.)
----------------------------
  NO LB      ZA    FRAG     MASS         X           Y           Z
   0 C     6.0000    0    12.011    0.494693    4.402765    0.000000
   1 C     6.0000    0    12.011    3.131163    4.402765    0.000000
   2 C     6.0000    0    12.011    4.449319    6.685084    0.000000
   3 C     6.0000    0    12.011    3.130944    8.968835   -0.002266
   4 C     6.0000    0    12.011    0.495107    8.968687   -0.003171
   5 C     6.0000    0    12.011   -0.823168    6.685509   -0.001289
   6 H     1.0000    0     1.008   -0.544201    2.603147    0.000850
   7 H     1.0000    0     1.008    4.169583    2.602776    0.002485
   8 H     1.0000    0     1.008    6.527413    6.685235    0.001198
   9 H     1.0000    0     1.008    4.170671   10.768124   -0.002377
  10 H     1.0000    0     1.008   -0.544473   10.768238   -0.004972
  11 O     8.0000    0    15.999   -3.525477    6.685959   -0.001731
  12 H     1.0000    0     1.008   -4.131895    6.682545    1.708046



           ************************************************************
           *        Program running with 16 parallel MPI-processes    *
           *              working on a common directory               *
           ************************************************************
------------------------------------------------------------------------------
                   ___                                                        
                  /   \      - P O W E R E D   B Y -                         
                 /     \                                                     
                 |  |  |   _    _      __       _____    __    __             
                 |  |  |  | |  | |    /  \     |  _  \  |  |  /  |          
                  \  \/   | |  | |   /    \    | | | |  |  | /  /          
                 / \  \   | |__| |  /  /\  \   | |_| |  |  |/  /          
                |  |  |   |  __  | /  /__\  \  |    /   |      \           
                |  |  |   | |  | | |   __   |  |    \   |  |\   \          
                \     /   | |  | | |  |  |  |  | |\  \  |  | \   \       
                 \___/    |_|  |_| |__|  |__|  |_| \__\ |__|  \__/        
                                                                              
                      - O R C A' S   B I G   F R I E N D -                    
                                      &                                       
                       - I N T E G R A L  F E E D E R -                       
                                                                              
 v1 FN, 2020, v2 2021                                                         
------------------------------------------------------------------------------


Reading SHARK input file phenol_efield_z_0.008.SHARKINP.tmp ... ok
----------------------
SHARK INTEGRAL PACKAGE
----------------------

Number of atoms                             ...     13
Number of basis functions                   ...    257
Number of shells                            ...    135
Maximum angular momentum                    ...      2
Integral batch strategy                     ... SHARK/LIBINT Hybrid
RI-J (if used) integral strategy            ... SPLIT-RIJ (Revised 2003 algorithm where possible)
Printlevel                                  ...      1
Contraction scheme used                     ... PARTIAL GENERAL contraction
Coulomb Range Separation                    ... NOT USED
Exchange Range Separation                   ... NOT USED
Finite Nucleus Model                        ... NOT USED
Auxiliary Coulomb fitting basis             ... NOT available
Auxiliary J/K fitting basis                 ... NOT available
Auxiliary Correlation fitting basis         ... NOT available
Auxiliary 'external' fitting basis          ... NOT available
Integral threshold                          ...     1.000000e-12
Primitive cut-off                           ...     1.000000e-14
Primitive pair pre-selection threshold      ...     1.000000e-14

Calculating pre-screening integrals         ... done (  0.0 sec) Dimension = 135
Calculating pre-screening integrals (ORCA)  ... done (  0.1 sec) Dimension = 93
Organizing shell pair data                  ... done (  0.0 sec)
Shell pair information
Total number of shell pairs                 ...      9180
Shell pairs after pre-screening             ...      8071
Total number of primitive shell pairs       ...     13080
Primitive shell pairs kept                  ...     10795
          la=0 lb=0:   2934 shell pairs
          la=1 lb=0:   2805 shell pairs
          la=1 lb=1:    559 shell pairs
          la=2 lb=0:   1207 shell pairs
          la=2 lb=1:    461 shell pairs
          la=2 lb=2:    105 shell pairs

Calculating one electron integrals          ... done (  0.0 sec)
Calculating Nuclear repulsion               ... done (  0.0 sec) ENN=    268.852435669254 Eh

SHARK setup successfully completed in   0.3 seconds

Maximum memory used throughout the entire GTOINT-calculation: 17.0 MB

An Electric Field will be added: 0.000e+00 0.000e+00 8.000e-03 au

  ... done adding electric field perturbation



           ************************************************************
           *        Program running with 16 parallel MPI-processes    *
           *              working on a common directory               *
           ************************************************************

Diagonalization of the overlap matrix:
Smallest eigenvalue                        ... 2.604e-06
Time for diagonalization                   ...    0.006 sec
Threshold for overlap eigenvalues          ... 1.000e-08
Number of eigenvalues below threshold      ... 0
Time for construction of square roots      ...    0.012 sec
Total time needed                          ...    0.018 sec

Time for model grid setup =    0.056 sec

Loading Hartree-Fock densities                     ... done
Calculating cut-offs                               ... done
Initializing the effective Hamiltonian             ... done
Setting up the integral package (SHARK)            ... done
Starting the Coulomb interaction                   ... done (   0.0 sec)
Reading the grid                                   ... done
Mapping shells                                     ... done
Starting the XC term evaluation                    ... done (   0.0 sec)
Transforming the Hamiltonian                       ... done (   0.0 sec)
Diagonalizing the Hamiltonian                      ... done (   0.0 sec)
Back transforming the eigenvectors                 ... done (   0.0 sec)
Now organizing SCF variables                       ... done
--------------
SCF ITERATIONS
--------------
ITER       Energy         Delta-E        Max-DP      RMS-DP      [F,P]     Damp
               ***  Starting incremental Fock matrix formation  ***
  0   -305.3421134293   0.000000000000 0.92565004  0.02241200  0.2253891 0.7000
  1   -305.4312214313  -0.089108001961 0.68252911  0.01674583  0.1407450 0.7000
                               ***Turning on DIIS***
  2   -305.4860320974  -0.054810666083 1.57872174  0.03866460  0.0817474 0.0000
  3   -305.0097096331   0.476322464286 0.03662146  0.00154180  0.0404069 0.0000
  4   -305.5522009169  -0.542491283880 0.05906204  0.00108338  0.0051152 0.0000
  5   -305.5850986166  -0.032897699633 0.01787290  0.00037280  0.0034252 0.0000
                      *** Initiating the SOSCF procedure ***
                           *** Shutting down DIIS ***
                      *** Re-Reading the Fockian *** 
                      *** Removing any level shift *** 
ITER      Energy       Delta-E        Grad      Rot      Max-DP    RMS-DP
  6   -305.59669375  -0.0115951322  0.000423  0.000423  0.002893  0.000065
               *** Restarting incremental Fock matrix formation ***
  7   -305.60007903  -0.0033852807  0.000218  0.000488  0.001437  0.000042
  8   -305.60008076  -0.0000017321  0.000113  0.000543  0.002241  0.000049
  9   -305.60008137  -0.0000006098  0.000033  0.000101  0.000343  0.000010
 10   -305.60008145  -0.0000000773  0.000015  0.000061  0.000272  0.000007
 11   -305.60008147  -0.0000000231  0.000006  0.000037  0.000087  0.000003
 12   -305.60008148  -0.0000000036  0.000001  0.000004  0.000018  0.000001
 13   -305.60008148  -0.0000000002  0.000001  0.000001  0.000019  0.000000
                  ***Gradient check signals convergence***
              ***Rediagonalizing the Fockian in SOSCF/NRSCF***

               *****************************************************
               *                     SUCCESS                       *
               *           SCF CONVERGED AFTER  14 CYCLES          *
               *****************************************************

Total Energy       :         -305.60008148 Eh           -8315.80098 eV
  Last Energy change         ...    7.9581e-13  Tolerance :   1.0000e-09
  Last MAX-Density change    ...    4.7028e-06  Tolerance :   1.0000e-08
             **** THE GBW FILE WAS UPDATED (phenol_efield_z_0.008.gbw) ****
             **** DENSITY phenol_efield_z_0.008.scfp WAS UPDATED ****
             **** ENERGY FILE WAS UPDATED (phenol_efield_z_0.008.en.tmp) ****
             **** THE GBW FILE WAS UPDATED (phenol_efield_z_0.008.gbw) ****
             **** DENSITY phenol_efield_z_0.008.scfp WAS UPDATED ****
----------------
ORBITAL ENERGIES
----------------

  NO   OCC          E(Eh)            E(eV) 
   0   2.0000     -20.586795      -560.1952 
   1   2.0000     -11.307549      -307.6940 
   2   2.0000     -11.251838      -306.1781 
   3   2.0000     -11.251722      -306.1749 
   4   2.0000     -11.246983      -306.0460 
   5   2.0000     -11.246947      -306.0450 
   6   2.0000     -11.245681      -306.0105 
   7   2.0000      -1.375368       -37.4257 
   8   2.0000      -1.153902       -31.3993 
   9   2.0000      -1.023696       -27.8562 
  10   2.0000      -1.010165       -27.4880 
  11   2.0000      -0.836803       -22.7706 
  12   2.0000      -0.824596       -22.4384 
  13   2.0000      -0.724810       -19.7231 
  14   2.0000      -0.677157       -18.4264 
  15   2.0000      -0.647596       -17.6220 
  16   2.0000      -0.628571       -17.1043 
  17   2.0000      -0.591131       -16.0855 
  18   2.0000      -0.588949       -16.0261 
  19   2.0000      -0.521782       -14.1984 
  20   2.0000      -0.516044       -14.0423 
  21   2.0000      -0.498864       -13.5748 
  22   2.0000      -0.476155       -12.9568 
  23   2.0000      -0.343939        -9.3591 
  24   2.0000      -0.335064        -9.1176 
  25   0.0000       0.028627         0.7790 
  26   0.0000       0.038322         1.0428 
  27   0.0000       0.039161         1.0656 
  28   0.0000       0.055519         1.5107 
  29   0.0000       0.058629         1.5954 
  30   0.0000       0.076693         2.0869 
  31   0.0000       0.101707         2.7676 
  32   0.0000       0.102720         2.7952 
  33   0.0000       0.112474         3.0606 
  34   0.0000       0.119725         3.2579 
  35   0.0000       0.120279         3.2730 
  36   0.0000       0.145207         3.9513 
  37   0.0000       0.145418         3.9570 
  38   0.0000       0.152625         4.1531 
  39   0.0000       0.155310         4.2262 
  40   0.0000       0.158574         4.3150 
  41   0.0000       0.161844         4.4040 
  42   0.0000       0.163414         4.4467 
  43   0.0000       0.170674         4.6443 
  44   0.0000       0.175114         4.7651 
  45   0.0000       0.178697         4.8626 
  46   0.0000       0.186548         5.0762 
  47   0.0000       0.187748         5.1089 
  48   0.0000       0.192425         5.2362 
  49   0.0000       0.195282         5.3139 
  50   0.0000       0.197625         5.3776 
  51   0.0000       0.236584         6.4378 
  52   0.0000       0.262210         7.1351 
  53   0.0000       0.269270         7.3272 
  54   0.0000       0.286330         7.7914 
  55   0.0000       0.294582         8.0160 
  56   0.0000       0.305811         8.3215 
  57   0.0000       0.306309         8.3351 
  58   0.0000       0.321212         8.7406 
  59   0.0000       0.347761         9.4631 
  60   0.0000       0.348926         9.4948 
  61   0.0000       0.352874         9.6022 
  62   0.0000       0.355681         9.6786 
  63   0.0000       0.368661        10.0318 
  64   0.0000       0.371034        10.0963 
  65   0.0000       0.375041        10.2054 
  66   0.0000       0.376496        10.2450 
  67   0.0000       0.402269        10.9463 
  68   0.0000       0.403072        10.9682 
  69   0.0000       0.412294        11.2191 
  70   0.0000       0.417448        11.3593 
  71   0.0000       0.434299        11.8179 
  72   0.0000       0.436720        11.8838 
  73   0.0000       0.444602        12.0982 
  74   0.0000       0.468412        12.7461 
  75   0.0000       0.486033        13.2256 
  76   0.0000       0.498049        13.5526 
  77   0.0000       0.501234        13.6393 
  78   0.0000       0.517461        14.0808 
  79   0.0000       0.528523        14.3819 
  80   0.0000       0.532484        14.4896 
  81   0.0000       0.557010        15.1570 
  82   0.0000       0.578048        15.7295 
  83   0.0000       0.581279        15.8174 
  84   0.0000       0.588472        16.0131 
  85   0.0000       0.597538        16.2598 
  86   0.0000       0.606561        16.5054 
  87   0.0000       0.618213        16.8224 
  88   0.0000       0.634126        17.2554 
  89   0.0000       0.648482        17.6461 
  90   0.0000       0.654976        17.8228 
  91   0.0000       0.669510        18.2183 
  92   0.0000       0.672697        18.3050 
  93   0.0000       0.684110        18.6156 
  94   0.0000       0.688441        18.7334 
  95   0.0000       0.689858        18.7720 
  96   0.0000       0.704531        19.1713 
  97   0.0000       0.724135        19.7047 
  98   0.0000       0.739370        20.1193 
  99   0.0000       0.752309        20.4714 
 100   0.0000       0.752974        20.4895 
 101   0.0000       0.763050        20.7636 
 102   0.0000       0.764380        20.7998 
 103   0.0000       0.770495        20.9662 
 104   0.0000       0.802472        21.8364 
 105   0.0000       0.841650        22.9025 
 106   0.0000       0.858064        23.3491 
 107   0.0000       0.867727        23.6121 
 108   0.0000       0.867794        23.6139 
 109   0.0000       0.874421        23.7942 
 110   0.0000       0.913660        24.8620 
 111   0.0000       0.918291        24.9880 
 112   0.0000       0.920925        25.0596 
 113   0.0000       0.931781        25.3550 
 114   0.0000       0.935825        25.4651 
 115   0.0000       0.937950        25.5229 
 116   0.0000       0.945076        25.7168 
 117   0.0000       0.959394        26.1064 
 118   0.0000       0.977474        26.5984 
 119   0.0000       0.980741        26.6873 
 120   0.0000       0.997302        27.1380 
 121   0.0000       1.033842        28.1323 
 122   0.0000       1.040004        28.2999 
 123   0.0000       1.044241        28.4152 
 124   0.0000       1.068348        29.0712 
 125   0.0000       1.089916        29.6581 
 126   0.0000       1.145963        31.1832 
 127   0.0000       1.161193        31.5977 
 128   0.0000       1.170650        31.8550 
 129   0.0000       1.176632        32.0178 
 130   0.0000       1.245445        33.8903 
 131   0.0000       1.292660        35.1751 
 132   0.0000       1.356638        36.9160 
 133   0.0000       1.378645        37.5148 
 134   0.0000       1.417363        38.5684 
 135   0.0000       1.439068        39.1590 
 136   0.0000       1.461890        39.7800 
 137   0.0000       1.476017        40.1645 
 138   0.0000       1.484421        40.3932 
 139   0.0000       1.520750        41.3817 
 140   0.0000       1.530068        41.6353 
 141   0.0000       1.550291        42.1856 
 142   0.0000       1.566454        42.6254 
 143   0.0000       1.588117        43.2149 
 144   0.0000       1.604336        43.6562 
 145   0.0000       1.631452        44.3941 
 146   0.0000       1.635490        44.5039 
 147   0.0000       1.639234        44.6058 
 148   0.0000       1.648751        44.8648 
 149   0.0000       1.659017        45.1441 
 150   0.0000       1.670762        45.4638 
 151   0.0000       1.703967        46.3673 
 152   0.0000       1.704183        46.3732 
 153   0.0000       1.713363        46.6230 
 154   0.0000       1.731346        47.1123 
 155   0.0000       1.767032        48.0834 
 156   0.0000       1.796584        48.8875 
 157   0.0000       1.799916        48.9782 
 158   0.0000       1.864703        50.7411 
 159   0.0000       1.876911        51.0733 
 160   0.0000       1.888208        51.3807 
 161   0.0000       1.888620        51.3920 
 162   0.0000       1.904684        51.8291 
 163   0.0000       1.930622        52.5349 
 164   0.0000       1.942625        52.8615 
 165   0.0000       1.950969        53.0886 
 166   0.0000       1.960234        53.3407 
 167   0.0000       1.977350        53.8064 
 168   0.0000       1.985808        54.0366 
 169   0.0000       2.044085        55.6224 
 170   0.0000       2.053097        55.8676 
 171   0.0000       2.094128        56.9841 
 172   0.0000       2.110772        57.4370 
 173   0.0000       2.133922        58.0670 
 174   0.0000       2.164669        58.9036 
 175   0.0000       2.179024        59.2942 
 176   0.0000       2.197291        59.7913 
 177   0.0000       2.206068        60.0302 
 178   0.0000       2.214230        60.2523 
 179   0.0000       2.246934        61.1422 
 180   0.0000       2.257284        61.4238 
 181   0.0000       2.286669        62.2234 
 182   0.0000       2.319514        63.1172 
 183   0.0000       2.354208        64.0613 
 184   0.0000       2.362697        64.2922 
 185   0.0000       2.378204        64.7142 
 186   0.0000       2.417601        65.7863 
 187   0.0000       2.452511        66.7362 
 188   0.0000       2.469280        67.1925 
 189   0.0000       2.622389        71.3588 
 190   0.0000       2.629247        71.5454 
 191   0.0000       2.667492        72.5862 
 192   0.0000       2.709560        73.7309 
 193   0.0000       2.756535        75.0091 
 194   0.0000       2.763950        75.2109 
 195   0.0000       2.768703        75.3402 
 196   0.0000       2.852026        77.6076 
 197   0.0000       2.897486        78.8446 
 198   0.0000       2.940527        80.0158 
 199   0.0000       3.006598        81.8137 
 200   0.0000       3.051573        83.0375 
 201   0.0000       3.084507        83.9337 
 202   0.0000       3.128174        85.1219 
 203   0.0000       3.202586        87.1468 
 204   0.0000       3.275484        89.1304 
 205   0.0000       3.365654        91.5841 
 206   0.0000       3.511110        95.5422 
 207   0.0000       3.549951        96.5991 
 208   0.0000       3.741971       101.8242 
 209   0.0000       3.772693       102.6602 
 210   0.0000       3.833976       104.3278 
 211   0.0000       3.923884       106.7743 
 212   0.0000       4.001139       108.8765 
 213   0.0000       4.268217       116.1441 
 214   0.0000       4.717520       128.3703 
Total SCF time: 0 days 0 hours 0 min 17 sec 

Maximum memory used throughout the entire SCF-calculation: 231.6 MB

-------------------------   --------------------
FINAL SINGLE POINT ENERGY      -305.600081475603
-------------------------   --------------------


                            ***************************************
                            *     ORCA property calculations      *
                            ***************************************

                                    ---------------------
                                    Active property flags
                                    ---------------------
   (+) Dipole Moment
   (+) Polarizability


------------------------------------------------------------------------------
                       ORCA ELECTRIC PROPERTIES CALCULATION
------------------------------------------------------------------------------

Dipole Moment Calculation                       ... on
Quadrupole Moment Calculation                   ... off
Polarizability Calculation                      ... Analytic (CP-SCF)
GBWName                                         ... phenol_efield_z_0.008.gbw
Electron density                                ... phenol_efield_z_0.008.scfp
The origin for moment calculation is the CENTER OF MASS  = ( 0.892295,  6.685629  0.017111)

-------------
DIPOLE MOMENT
-------------
                                X             Y             Z
Electronic contribution:     -1.76927       0.00055       0.15982
Nuclear contribution   :      2.09690      -0.00184       0.79546
                        -----------------------------------------
Total Dipole Moment    :      0.32763      -0.00129       0.95528
                        -----------------------------------------
Magnitude (a.u.)       :      1.00990
Magnitude (Debye)      :      2.56697



--------------------
Rotational spectrum 
--------------------
 
Rotational constants in cm-1:     0.187876     0.084795     0.058746 
Rotational constants in MHz :  5632.368735  2542.097443  1761.161239 

 Dipole components along the rotational axes: 
x,y,z [a.u.] :     0.316026     0.001881     0.959180 
x,y,z [Debye]:     0.803274     0.004780     2.438041 

 
Transforming and storing MO dipole integrals   ... done

                ... starting polarizability calculation

The origin for moment calculation is the CENTER OF MASS  = ( 0.892295,  6.685629  0.017111)
Opening the Dipole integral file               ... (phenol_efield_z_0.008.dmo.tmp) done
Reading Dipole-MO integrals                    ... done
Solving CP-SCF equations                       ... 

           ************************************************************
           *        Program running with 16 parallel MPI-processes    *
           *              working on a common directory               *
           ************************************************************

------------------------------------------------------------------------------
                           ORCA CP-SCF CALCULATION
------------------------------------------------------------------------------

Input orbitals are from        ... phenol_efield_z_0.008.gbw
Input Perturbation             ... phenol_efield_z_0.008.cpv.tmp
Wavefunction output            ... phenol_efield_z_0.008.cpu.tmp
Perturbation mode              ... Real perturbation (singlet)
Solver                         ... POPLE
Max. number of iterations      ... 64
Convergence tolerance          ... 3.000e-05
Integral handling              ... Direct
Number of perturbations        ... 3
Number of operators            ... 1
Orbital ranges used for CP-SCF:
 Operator 0:  Orbitals   0... 24  to  25...214
Variables per perturbation     ... 4750
Memory available               ... 1992.1 MB
Memory needed per perturbation ...   1.4 MB
Perturbations treated per batch... 3
Number of batches              ... 1
     CP-SCF ITERATION   0:   2.0061e+00 (   2.2 sec   0/  3 done)
     CP-SCF ITERATION   1:   4.1876e-01 (   2.2 sec   0/  3 done)
     CP-SCF ITERATION   2:   9.0202e-02 (   2.2 sec   0/  3 done)
     CP-SCF ITERATION   3:   3.9800e-02 (   2.2 sec   0/  3 done)
     CP-SCF ITERATION   4:   1.1379e-02 (   2.2 sec   0/  3 done)
     CP-SCF ITERATION   5:   4.2969e-03 (   2.2 sec   0/  3 done)
     CP-SCF ITERATION   6:   2.1938e-03 (   2.2 sec   0/  3 done)
     CP-SCF ITERATION   7:   8.8678e-04 (   2.2 sec   0/  3 done)
     CP-SCF ITERATION   8:   3.1513e-04 (   2.2 sec   0/  3 done)
     CP-SCF ITERATION   9:   8.4844e-05 (   2.2 sec   2/  3 done)
     CP-SCF ITERATION  10:   2.2144e-05 (   1.6 sec   3/  3 done)
                    *** THE CP-SCF HAS CONVERGED ***
done
Reading CP-SCF coefficients                    ... done
Doing the polarizability tensor                ... done
Cleaning up                                    ... done

-------------------------
THE POLARIZABILITY TENSOR
-------------------------

The raw cartesian tensor (atomic units):
   88.20861      0.00286     -1.74397  
    0.00286     82.02503     -0.02333  
   -1.74397     -0.02333     48.14609  
diagonalized tensor: 
   48.07030     82.02504     88.28439  

    0.04341     -0.00065     -0.99906  
    0.00068      1.00000     -0.00062  
    0.99906     -0.00066      0.04341  

Isotropic polarizability :  72.79324


Timings for individual modules:

Sum of individual times         ...       49.159 sec (=   0.819 min)
GTO integral calculation        ...        2.919 sec (=   0.049 min)   5.9 %
SCF iterations                  ...       19.627 sec (=   0.327 min)  39.9 %
Solution of CP-SCF eqns.        ...       26.612 sec (=   0.444 min)  54.1 %
                             ****ORCA TERMINATED NORMALLY****
TOTAL RUN TIME: 0 days 0 hours 0 minutes 52 seconds 416 msec
