
                                 *****************
                                 * O   R   C   A *
                                 *****************

                                            #,                                       
                                            ###                                      
                                            ####                                     
                                            #####                                    
                                            ######                                   
                                           ########,                                 
                                     ,,################,,,,,                         
                               ,,#################################,,                 
                          ,,##########################################,,             
                       ,#########################################, ''#####,          
                    ,#############################################,,   '####,        
                  ,##################################################,,,,####,       
                ,###########''''           ''''###############################       
              ,#####''   ,,,,##########,,,,          '''####'''          '####       
            ,##' ,,,,###########################,,,                        '##       
           ' ,,###''''                  '''############,,,                           
         ,,##''                                '''############,,,,        ,,,,,,###''
      ,#''                                            '''#######################'''  
     '                                                          ''''####''''         
             ,#######,   #######,   ,#######,      ##                                
            ,#'     '#,  ##    ##  ,#'     '#,    #''#        ######   ,####,        
            ##       ##  ##   ,#'  ##            #'  '#       #        #'  '#        
            ##       ##  #######   ##           ,######,      #####,   #    #        
            '#,     ,#'  ##    ##  '#,     ,#' ,#      #,         ##   #,  ,#        
             '#######'   ##     ##  '#######'  #'      '#     #####' # '####'        



                  #######################################################
                  #                        -***-                        #
                  #          Department of theory and spectroscopy      #
                  #    Directorship and core code : Frank Neese         #
                  #        Max Planck Institute fuer Kohlenforschung    #
                  #                Kaiser Wilhelm Platz 1               #
                  #                 D-45470 Muelheim/Ruhr               #
                  #                      Germany                        #
                  #                                                     #
                  #                  All rights reserved                #
                  #                        -***-                        #
                  #######################################################


                         Program Version 5.0.4 -  RELEASE  -


 With contributions from (in alphabetic order):
   Daniel Aravena         : Magnetic Suceptibility
   Michael Atanasov       : Ab Initio Ligand Field Theory (pilot matlab implementation)
   Alexander A. Auer      : GIAO ZORA, VPT2 properties, NMR spectrum
   Ute Becker             : Parallelization
   Giovanni Bistoni       : ED, misc. LED, open-shell LED, HFLD
   Martin Brehm           : Molecular dynamics
   Dmytro Bykov           : SCF Hessian
   Vijay G. Chilkuri      : MRCI spin determinant printing, contributions to CSF-ICE
   Dipayan Datta          : RHF DLPNO-CCSD density
   Achintya Kumar Dutta   : EOM-CC, STEOM-CC
   Dmitry Ganyushin       : Spin-Orbit,Spin-Spin,Magnetic field MRCI
   Miquel Garcia          : C-PCM and meta-GGA Hessian, CC/C-PCM, Gaussian charge scheme
   Yang Guo               : DLPNO-NEVPT2, F12-NEVPT2, CIM, IAO-localization
   Andreas Hansen         : Spin unrestricted coupled pair/coupled cluster methods
   Benjamin Helmich-Paris : MC-RPA, TRAH-SCF, COSX integrals
   Lee Huntington         : MR-EOM, pCC
   Robert Izsak           : Overlap fitted RIJCOSX, COSX-SCS-MP3, EOM
   Marcus Kettner         : VPT2
   Christian Kollmar      : KDIIS, OOCD, Brueckner-CCSD(T), CCSD density, CASPT2, CASPT2-K
   Simone Kossmann        : Meta GGA functionals, TD-DFT gradient, OOMP2, MP2 Hessian
   Martin Krupicka        : Initial AUTO-CI
   Lucas Lang             : DCDCAS
   Marvin Lechner         : AUTO-CI (C++ implementation), FIC-MRCC
   Dagmar Lenk            : GEPOL surface, SMD
   Dimitrios Liakos       : Extrapolation schemes; Compound Job, initial MDCI parallelization
   Dimitrios Manganas     : Further ROCIS development; embedding schemes
   Dimitrios Pantazis     : SARC Basis sets
   Anastasios Papadopoulos: AUTO-CI, single reference methods and gradients
   Taras Petrenko         : DFT Hessian,TD-DFT gradient, ASA, ECA, R-Raman, ABS, FL, XAS/XES, NRVS
   Peter Pinski           : DLPNO-MP2, DLPNO-MP2 Gradient
   Christoph Reimann      : Effective Core Potentials
   Marius Retegan         : Local ZFS, SOC
   Christoph Riplinger    : Optimizer, TS searches, QM/MM, DLPNO-CCSD(T), (RO)-DLPNO pert. Triples
   Tobias Risthaus        : Range-separated hybrids, TD-DFT gradient, RPA, STAB
   Michael Roemelt        : Original ROCIS implementation
   Masaaki Saitow         : Open-shell DLPNO-CCSD energy and density
   Barbara Sandhoefer     : DKH picture change effects
   Avijit Sen             : IP-ROCIS
   Kantharuban Sivalingam : CASSCF convergence, NEVPT2, FIC-MRCI
   Bernardo de Souza      : ESD, SOC TD-DFT
   Georgi Stoychev        : AutoAux, RI-MP2 NMR, DLPNO-MP2 response
   Willem Van den Heuvel  : Paramagnetic NMR
   Boris Wezisla          : Elementary symmetry handling
   Frank Wennmohs         : Technical directorship


 We gratefully acknowledge several colleagues who have allowed us to
 interface, adapt or use parts of their codes:
   Stefan Grimme, W. Hujo, H. Kruse, P. Pracht,  : VdW corrections, initial TS optimization,
                  C. Bannwarth, S. Ehlert          DFT functionals, gCP, sTDA/sTD-DF
   Ed Valeev, F. Pavosevic, A. Kumar             : LibInt (2-el integral package), F12 methods
   Garnet Chan, S. Sharma, J. Yang, R. Olivares  : DMRG
   Ulf Ekstrom                                   : XCFun DFT Library
   Mihaly Kallay                                 : mrcc  (arbitrary order and MRCC methods)
   Jiri Pittner, Ondrej Demel                    : Mk-CCSD
   Frank Weinhold                                : gennbo (NPA and NBO analysis)
   Christopher J. Cramer and Donald G. Truhlar   : smd solvation model
   Lars Goerigk                                  : TD-DFT with DH, B97 family of functionals
   V. Asgeirsson, H. Jonsson                     : NEB implementation
   FAccTs GmbH                                   : IRC, NEB, NEB-TS, DLPNO-Multilevel, CI-OPT
                                                   MM, QMMM, 2- and 3-layer-ONIOM, Crystal-QMMM,
                                                   LR-CPCM, SF, NACMEs, symmetry and pop. for TD-DFT,
                                                   nearIR, NL-DFT gradient (VV10), updates on ESD,
                                                   ML-optimized integration grids
   S Lehtola, MJT Oliveira, MAL Marques          : LibXC Library
   Liviu Ungur et al                             : ANISO software


 Your calculation uses the libint2 library for the computation of 2-el integrals
 For citations please refer to: http://libint.valeyev.net

 Your ORCA version has been built with support for libXC version: 5.1.0
 For citations please refer to: https://tddft.org/programs/libxc/

 This ORCA versions uses:
   CBLAS   interface :  Fast vector & matrix operations
   LAPACKE interface :  Fast linear algebra routines
   SCALAPACK package :  Parallel linear algebra routines
   Shared memory     :  Shared parallel matrices
   BLAS/LAPACK       :  OpenBLAS 0.3.15  USE64BITINT DYNAMIC_ARCH NO_AFFINITY SkylakeX SINGLE_THREADED
        Core in use  :  SkylakeX
   Copyright (c) 2011-2014, The OpenBLAS Project


================================================================================

----- Orbital basis set information -----
Your calculation utilizes the basis: aug-cc-pVDZ 
    H, B-Ne : Obtained from the ccRepo (grant-hill.group.shef.ac.uk/ccrepo) Feb. 2017
              R. A. Kendall, T. H. Dunning, Jr., R. J. Harrison, J. Chem. Phys. 96, 6796 (1992)
         He : Obtained from the ccRepo (grant-hill.group.shef.ac.uk/ccrepo) Feb. 2017
              D. E. Woon, T. H. Dunning, Jr., J. Chem. Phys. 100, 2975 (1994)
  Li-Be, Na : Obtained from the ccRepo (grant-hill.group.shef.ac.uk/ccrepo) Feb. 2017
              B. P. Prascher, D. E. Woon, K. A. Peterson, T. H. Dunning, Jr., A. K. Wilson, Theor. Chem. Acc. 128, 69 (2011)
         Mg : Obtained from the Peterson Research Group Website (tyr0.chem.wsu.edu/~kipeters) Feb. 2017
              B. P. Prascher, D. E. Woon, K. A. Peterson, T. H. Dunning, Jr., A. K. Wilson, Theor. Chem. Acc. 128, 69 (2011)
      Al-Ar : Obtained from the ccRepo (grant-hill.group.shef.ac.uk/ccrepo) Feb. 2017
              D. E. Woon, T. H. Dunning, Jr., J. Chem. Phys. 98, 1358 (1993)
      Sc-Zn : Obtained from the ccRepo (grant-hill.group.shef.ac.uk/ccrepo) Feb. 2017
              N. B. Balabanov, K. A. Peterson, J. Chem. Phys. 123, 064107 (2005)
              N. B. Balabanov, K. A. Peterson, J. Chem. Phys. 125, 074110 (2006)
      Ga-Kr : Obtained from the ccRepo (grant-hill.group.shef.ac.uk/ccrepo) Feb. 2017
              A. K. Wilson, D. E. Woon, K. A. Peterson, T. H. Dunning, Jr., J. Chem. Phys. 110, 7667 (1999)

================================================================================
                                        WARNINGS
                       Please study these warnings very carefully!
================================================================================


INFO   : the flag for use of the SHARK integral package has been found!

================================================================================
                                       INPUT FILE
================================================================================
NAME = phenol_efield_y_-0.016.inp
|  1> ! hf aug-cc-pVDZ
|  2> ! MiniPrint VeryTightSCF
|  3> %pal
|  4>  nprocs 16
|  5> end
|  6> %MaxCore 2000
|  7> %scf
|  8>  maxiter=200
|  9>  efield 0.0 , -0.016 , 0.0
| 10> end
| 11> %elprop
| 12>   polar 1
| 13> end
| 14> * xyz 0 1
| 15>  C                  0.26178012    2.32984290    0.00000000
| 16>  C                  1.65694012    2.32984290    0.00000000
| 17>  C                  2.35447812    3.53759390    0.00000000
| 18>  C                  1.65682412    4.74610290   -0.00119900
| 19>  C                  0.26199912    4.74602490   -0.00167800
| 20>  C                 -0.43560188    3.53781890   -0.00068200
| 21>  H                 -0.28797888    1.37752590    0.00045000
| 22>  H                  2.20644812    1.37732990    0.00131500
| 23>  H                  3.45415812    3.53767390    0.00063400
| 24>  H                  2.20702412    5.69824590   -0.00125800
| 25>  H                 -0.28812288    5.69830590   -0.00263100
| 26>  O                 -1.86560184    3.53805688   -0.00091608
| 27>  H                 -2.18650479    3.53625036    0.90385905
| 28> *
| 29> 
| 30>                          ****END OF INPUT****
================================================================================

                       ****************************
                       * Single Point Calculation *
                       ****************************

---------------------------------
CARTESIAN COORDINATES (ANGSTROEM)
---------------------------------
  C      0.261780    2.329843    0.000000
  C      1.656940    2.329843    0.000000
  C      2.354478    3.537594    0.000000
  C      1.656824    4.746103   -0.001199
  C      0.261999    4.746025   -0.001678
  C     -0.435602    3.537819   -0.000682
  H     -0.287979    1.377526    0.000450
  H      2.206448    1.377330    0.001315
  H      3.454158    3.537674    0.000634
  H      2.207024    5.698246   -0.001258
  H     -0.288123    5.698306   -0.002631
  O     -1.865602    3.538057   -0.000916
  H     -2.186505    3.536250    0.903859

----------------------------
CARTESIAN COORDINATES (A.U.)
----------------------------
  NO LB      ZA    FRAG     MASS         X           Y           Z
   0 C     6.0000    0    12.011    0.494693    4.402765    0.000000
   1 C     6.0000    0    12.011    3.131163    4.402765    0.000000
   2 C     6.0000    0    12.011    4.449319    6.685084    0.000000
   3 C     6.0000    0    12.011    3.130944    8.968835   -0.002266
   4 C     6.0000    0    12.011    0.495107    8.968687   -0.003171
   5 C     6.0000    0    12.011   -0.823168    6.685509   -0.001289
   6 H     1.0000    0     1.008   -0.544201    2.603147    0.000850
   7 H     1.0000    0     1.008    4.169583    2.602776    0.002485
   8 H     1.0000    0     1.008    6.527413    6.685235    0.001198
   9 H     1.0000    0     1.008    4.170671   10.768124   -0.002377
  10 H     1.0000    0     1.008   -0.544473   10.768238   -0.004972
  11 O     8.0000    0    15.999   -3.525477    6.685959   -0.001731
  12 H     1.0000    0     1.008   -4.131895    6.682545    1.708046



           ************************************************************
           *        Program running with 16 parallel MPI-processes    *
           *              working on a common directory               *
           ************************************************************
------------------------------------------------------------------------------
                   ___                                                        
                  /   \      - P O W E R E D   B Y -                         
                 /     \                                                     
                 |  |  |   _    _      __       _____    __    __             
                 |  |  |  | |  | |    /  \     |  _  \  |  |  /  |          
                  \  \/   | |  | |   /    \    | | | |  |  | /  /          
                 / \  \   | |__| |  /  /\  \   | |_| |  |  |/  /          
                |  |  |   |  __  | /  /__\  \  |    /   |      \           
                |  |  |   | |  | | |   __   |  |    \   |  |\   \          
                \     /   | |  | | |  |  |  |  | |\  \  |  | \   \       
                 \___/    |_|  |_| |__|  |__|  |_| \__\ |__|  \__/        
                                                                              
                      - O R C A' S   B I G   F R I E N D -                    
                                      &                                       
                       - I N T E G R A L  F E E D E R -                       
                                                                              
 v1 FN, 2020, v2 2021                                                         
------------------------------------------------------------------------------


Reading SHARK input file phenol_efield_y_-0.016.SHARKINP.tmp ... ok
----------------------
SHARK INTEGRAL PACKAGE
----------------------

Number of atoms                             ...     13
Number of basis functions                   ...    257
Number of shells                            ...    135
Maximum angular momentum                    ...      2
Integral batch strategy                     ... SHARK/LIBINT Hybrid
RI-J (if used) integral strategy            ... SPLIT-RIJ (Revised 2003 algorithm where possible)
Printlevel                                  ...      1
Contraction scheme used                     ... PARTIAL GENERAL contraction
Coulomb Range Separation                    ... NOT USED
Exchange Range Separation                   ... NOT USED
Finite Nucleus Model                        ... NOT USED
Auxiliary Coulomb fitting basis             ... NOT available
Auxiliary J/K fitting basis                 ... NOT available
Auxiliary Correlation fitting basis         ... NOT available
Auxiliary 'external' fitting basis          ... NOT available
Integral threshold                          ...     1.000000e-12
Primitive cut-off                           ...     1.000000e-14
Primitive pair pre-selection threshold      ...     1.000000e-14

Calculating pre-screening integrals         ... done (  0.0 sec) Dimension = 135
Calculating pre-screening integrals (ORCA)  ... done (  0.1 sec) Dimension = 93
Organizing shell pair data                  ... done (  0.0 sec)
Shell pair information
Total number of shell pairs                 ...      9180
Shell pairs after pre-screening             ...      8071
Total number of primitive shell pairs       ...     13080
Primitive shell pairs kept                  ...     10795
          la=0 lb=0:   2934 shell pairs
          la=1 lb=0:   2805 shell pairs
          la=1 lb=1:    559 shell pairs
          la=2 lb=0:   1207 shell pairs
          la=2 lb=1:    461 shell pairs
          la=2 lb=2:    105 shell pairs

Calculating one electron integrals          ... done (  0.0 sec)
Calculating Nuclear repulsion               ... done (  0.0 sec) ENN=    268.852435669254 Eh

SHARK setup successfully completed in   0.3 seconds

Maximum memory used throughout the entire GTOINT-calculation: 17.0 MB

An Electric Field will be added: 0.000e+00 -1.600e-02 0.000e+00 au

  ... done adding electric field perturbation



           ************************************************************
           *        Program running with 16 parallel MPI-processes    *
           *              working on a common directory               *
           ************************************************************

Diagonalization of the overlap matrix:
Smallest eigenvalue                        ... 2.604e-06
Time for diagonalization                   ...    0.006 sec
Threshold for overlap eigenvalues          ... 1.000e-08
Number of eigenvalues below threshold      ... 0
Time for construction of square roots      ...    0.013 sec
Total time needed                          ...    0.019 sec

Time for model grid setup =    0.059 sec

Loading Hartree-Fock densities                     ... done
Calculating cut-offs                               ... done
Initializing the effective Hamiltonian             ... done
Setting up the integral package (SHARK)            ... done
Starting the Coulomb interaction                   ... done (   0.0 sec)
Reading the grid                                   ... done
Mapping shells                                     ... done
Starting the XC term evaluation                    ... done (   0.0 sec)
Transforming the Hamiltonian                       ... done (   0.0 sec)
Diagonalizing the Hamiltonian                      ... done (   0.0 sec)
Back transforming the eigenvectors                 ... done (   0.0 sec)
Now organizing SCF variables                       ... done
--------------
SCF ITERATIONS
--------------
ITER       Energy         Delta-E        Max-DP      RMS-DP      [F,P]     Damp
               ***  Starting incremental Fock matrix formation  ***
  0   -305.3315610393   0.000000000000 0.98324813  0.02225646  0.2199146 0.7000
  1   -305.4267391144  -0.095178075046 0.73173330  0.01662057  0.1376133 0.7000
                               ***Turning on DIIS***
  2   -305.4846517772  -0.057912662842 1.68836448  0.03841335  0.0801290 0.0000
  3   -304.9795938966   0.505057880639 0.05787045  0.00174177  0.0391369 0.0000
  4   -305.5553761324  -0.575782235834 0.07678286  0.00115549  0.0054710 0.0000
                      *** Initiating the SOSCF procedure ***
                           *** Shutting down DIIS ***
                      *** Re-Reading the Fockian *** 
                      *** Removing any level shift *** 
ITER      Energy       Delta-E        Grad      Rot      Max-DP    RMS-DP
  5   -305.58702869  -0.0316525575  0.000948  0.000948  0.023727  0.000439
               *** Restarting incremental Fock matrix formation ***
  6   -305.60448272  -0.0174540349  0.000415  0.000903  0.003252  0.000106
  7   -305.60449517  -0.0000124411  0.000190  0.000658  0.005773  0.000122
  8   -305.60449873  -0.0000035627  0.000081  0.000183  0.000843  0.000024
  9   -305.60449912  -0.0000003883  0.000054  0.000229  0.000476  0.000019
 10   -305.60449927  -0.0000001512  0.000012  0.000039  0.000391  0.000008
 11   -305.60449928  -0.0000000112  0.000007  0.000022  0.000114  0.000002
 12   -305.60449928  -0.0000000019  0.000001  0.000004  0.000052  0.000001
 13   -305.60449928  -0.0000000002  0.000001  0.000001  0.000026  0.000001
                  ***Gradient check signals convergence***
              ***Rediagonalizing the Fockian in SOSCF/NRSCF***

               *****************************************************
               *                     SUCCESS                       *
               *           SCF CONVERGED AFTER  14 CYCLES          *
               *****************************************************

Total Energy       :         -305.60449928 Eh           -8315.92120 eV
  Last Energy change         ...    2.1600e-11  Tolerance :   1.0000e-09
  Last MAX-Density change    ...    5.6082e-06  Tolerance :   1.0000e-08
             **** THE GBW FILE WAS UPDATED (phenol_efield_y_-0.016.gbw) ****
             **** DENSITY phenol_efield_y_-0.016.scfp WAS UPDATED ****
             **** ENERGY FILE WAS UPDATED (phenol_efield_y_-0.016.en.tmp) ****
             **** THE GBW FILE WAS UPDATED (phenol_efield_y_-0.016.gbw) ****
             **** DENSITY phenol_efield_y_-0.016.scfp WAS UPDATED ****
----------------
ORBITAL ENERGIES
----------------

  NO   OCC          E(Eh)            E(eV) 
   0   2.0000     -20.589616      -560.2719 
   1   2.0000     -11.308965      -307.7326 
   2   2.0000     -11.264603      -306.5254 
   3   2.0000     -11.259889      -306.3972 
   4   2.0000     -11.247090      -306.0489 
   5   2.0000     -11.241556      -305.8983 
   6   2.0000     -11.237004      -305.7744 
   7   2.0000      -1.377757       -37.4907 
   8   2.0000      -1.155966       -31.4554 
   9   2.0000      -1.024759       -27.8851 
  10   2.0000      -1.011859       -27.5341 
  11   2.0000      -0.838423       -22.8146 
  12   2.0000      -0.826072       -22.4785 
  13   2.0000      -0.727252       -19.7895 
  14   2.0000      -0.679486       -18.4897 
  15   2.0000      -0.649333       -17.6693 
  16   2.0000      -0.630420       -17.1546 
  17   2.0000      -0.591515       -16.0959 
  18   2.0000      -0.590589       -16.0707 
  19   2.0000      -0.522201       -14.2098 
  20   2.0000      -0.515189       -14.0190 
  21   2.0000      -0.501033       -13.6338 
  22   2.0000      -0.476603       -12.9690 
  23   2.0000      -0.343843        -9.3564 
  24   2.0000      -0.336677        -9.1614 
  25   0.0000      -0.076230        -2.0743 
  26   0.0000      -0.063433        -1.7261 
  27   0.0000       0.030217         0.8222 
  28   0.0000       0.037796         1.0285 
  29   0.0000       0.057070         1.5530 
  30   0.0000       0.073953         2.0124 
  31   0.0000       0.079919         2.1747 
  32   0.0000       0.083850         2.2817 
  33   0.0000       0.096044         2.6135 
  34   0.0000       0.105758         2.8778 
  35   0.0000       0.118758         3.2316 
  36   0.0000       0.130873         3.5612 
  37   0.0000       0.132445         3.6040 
  38   0.0000       0.138682         3.7737 
  39   0.0000       0.143293         3.8992 
  40   0.0000       0.150415         4.0930 
  41   0.0000       0.163983         4.4622 
  42   0.0000       0.167852         4.5675 
  43   0.0000       0.174372         4.7449 
  44   0.0000       0.192017         5.2250 
  45   0.0000       0.202968         5.5230 
  46   0.0000       0.217230         5.9111 
  47   0.0000       0.223448         6.0803 
  48   0.0000       0.231092         6.2883 
  49   0.0000       0.238435         6.4882 
  50   0.0000       0.244459         6.6521 
  51   0.0000       0.250416         6.8142 
  52   0.0000       0.260396         7.0857 
  53   0.0000       0.276084         7.5126 
  54   0.0000       0.282422         7.6851 
  55   0.0000       0.296618         8.0714 
  56   0.0000       0.303455         8.2574 
  57   0.0000       0.313736         8.5372 
  58   0.0000       0.314660         8.5623 
  59   0.0000       0.324482         8.8296 
  60   0.0000       0.343534         9.3480 
  61   0.0000       0.345998         9.4151 
  62   0.0000       0.349867         9.5204 
  63   0.0000       0.356295         9.6953 
  64   0.0000       0.368837        10.0366 
  65   0.0000       0.373777        10.1710 
  66   0.0000       0.387660        10.5488 
  67   0.0000       0.396220        10.7817 
  68   0.0000       0.414439        11.2775 
  69   0.0000       0.423040        11.5115 
  70   0.0000       0.429793        11.6953 
  71   0.0000       0.437561        11.9066 
  72   0.0000       0.439887        11.9699 
  73   0.0000       0.462837        12.5944 
  74   0.0000       0.470543        12.8041 
  75   0.0000       0.486071        13.2267 
  76   0.0000       0.492292        13.3960 
  77   0.0000       0.504424        13.7261 
  78   0.0000       0.519764        14.1435 
  79   0.0000       0.528869        14.3912 
  80   0.0000       0.530128        14.4255 
  81   0.0000       0.565713        15.3938 
  82   0.0000       0.577451        15.7132 
  83   0.0000       0.578935        15.7536 
  84   0.0000       0.592436        16.1210 
  85   0.0000       0.594263        16.1707 
  86   0.0000       0.604833        16.4584 
  87   0.0000       0.612055        16.6549 
  88   0.0000       0.628752        17.1092 
  89   0.0000       0.645955        17.5773 
  90   0.0000       0.656109        17.8536 
  91   0.0000       0.661175        17.9915 
  92   0.0000       0.666608        18.1393 
  93   0.0000       0.680873        18.5275 
  94   0.0000       0.692729        18.8501 
  95   0.0000       0.696024        18.9398 
  96   0.0000       0.704498        19.1704 
  97   0.0000       0.719929        19.5903 
  98   0.0000       0.742090        20.1933 
  99   0.0000       0.750337        20.4177 
 100   0.0000       0.757534        20.6135 
 101   0.0000       0.767779        20.8923 
 102   0.0000       0.771363        20.9898 
 103   0.0000       0.794639        21.6232 
 104   0.0000       0.803768        21.8716 
 105   0.0000       0.838329        22.8121 
 106   0.0000       0.849635        23.1197 
 107   0.0000       0.866189        23.5702 
 108   0.0000       0.871115        23.7042 
 109   0.0000       0.883215        24.0335 
 110   0.0000       0.900007        24.4904 
 111   0.0000       0.908894        24.7323 
 112   0.0000       0.924412        25.1545 
 113   0.0000       0.931355        25.3434 
 114   0.0000       0.936900        25.4943 
 115   0.0000       0.941506        25.6197 
 116   0.0000       0.952049        25.9066 
 117   0.0000       0.967491        26.3268 
 118   0.0000       0.978250        26.6195 
 119   0.0000       0.981102        26.6972 
 120   0.0000       0.998582        27.1728 
 121   0.0000       1.030419        28.0391 
 122   0.0000       1.038674        28.2638 
 123   0.0000       1.042716        28.3737 
 124   0.0000       1.073056        29.1993 
 125   0.0000       1.089461        29.6457 
 126   0.0000       1.142443        31.0874 
 127   0.0000       1.166613        31.7451 
 128   0.0000       1.172526        31.9061 
 129   0.0000       1.177380        32.0381 
 130   0.0000       1.247001        33.9326 
 131   0.0000       1.292578        35.1728 
 132   0.0000       1.355368        36.8815 
 133   0.0000       1.376262        37.4500 
 134   0.0000       1.415549        38.5190 
 135   0.0000       1.437835        39.1255 
 136   0.0000       1.460463        39.7412 
 137   0.0000       1.475964        40.1630 
 138   0.0000       1.481142        40.3039 
 139   0.0000       1.518835        41.3296 
 140   0.0000       1.526238        41.5311 
 141   0.0000       1.553966        42.2856 
 142   0.0000       1.561827        42.4995 
 143   0.0000       1.580717        43.0135 
 144   0.0000       1.603440        43.6318 
 145   0.0000       1.621839        44.1325 
 146   0.0000       1.633734        44.4562 
 147   0.0000       1.641839        44.6767 
 148   0.0000       1.653856        45.0037 
 149   0.0000       1.665159        45.3113 
 150   0.0000       1.677094        45.6361 
 151   0.0000       1.699577        46.2479 
 152   0.0000       1.705197        46.4008 
 153   0.0000       1.712383        46.5963 
 154   0.0000       1.731733        47.1228 
 155   0.0000       1.765474        48.0410 
 156   0.0000       1.797720        48.9185 
 157   0.0000       1.798237        48.9325 
 158   0.0000       1.864654        50.7398 
 159   0.0000       1.875048        51.0226 
 160   0.0000       1.883807        51.2610 
 161   0.0000       1.887459        51.3604 
 162   0.0000       1.903665        51.8014 
 163   0.0000       1.929414        52.5020 
 164   0.0000       1.942942        52.8701 
 165   0.0000       1.950425        53.0738 
 166   0.0000       1.959772        53.3281 
 167   0.0000       1.979117        53.8545 
 168   0.0000       1.987377        54.0793 
 169   0.0000       2.043407        55.6039 
 170   0.0000       2.052961        55.8639 
 171   0.0000       2.082773        56.6751 
 172   0.0000       2.118860        57.6571 
 173   0.0000       2.131760        58.0081 
 174   0.0000       2.163958        58.8843 
 175   0.0000       2.178036        59.2674 
 176   0.0000       2.193825        59.6970 
 177   0.0000       2.206795        60.0500 
 178   0.0000       2.213324        60.2276 
 179   0.0000       2.245096        61.0922 
 180   0.0000       2.255493        61.3751 
 181   0.0000       2.286686        62.2239 
 182   0.0000       2.320118        63.1336 
 183   0.0000       2.353781        64.0497 
 184   0.0000       2.362833        64.2960 
 185   0.0000       2.376966        64.6805 
 186   0.0000       2.417853        65.7931 
 187   0.0000       2.451947        66.7209 
 188   0.0000       2.466969        67.1296 
 189   0.0000       2.621376        71.3313 
 190   0.0000       2.624103        71.4055 
 191   0.0000       2.666847        72.5686 
 192   0.0000       2.706755        73.6545 
 193   0.0000       2.743471        74.6536 
 194   0.0000       2.764195        75.2176 
 195   0.0000       2.779273        75.6279 
 196   0.0000       2.848746        77.5183 
 197   0.0000       2.897256        78.8384 
 198   0.0000       2.940905        80.0261 
 199   0.0000       3.005695        81.7891 
 200   0.0000       3.050283        83.0024 
 201   0.0000       3.083971        83.9191 
 202   0.0000       3.127094        85.0926 
 203   0.0000       3.201280        87.1113 
 204   0.0000       3.275990        89.1442 
 205   0.0000       3.364841        91.5620 
 206   0.0000       3.510298        95.5201 
 207   0.0000       3.549398        96.5840 
 208   0.0000       3.741143       101.8017 
 209   0.0000       3.771083       102.6164 
 210   0.0000       3.832881       104.2980 
 211   0.0000       3.922275       106.7305 
 212   0.0000       3.999547       108.8332 
 213   0.0000       4.265653       116.0743 
 214   0.0000       4.716929       128.3542 
Total SCF time: 0 days 0 hours 0 min 17 sec 

Maximum memory used throughout the entire SCF-calculation: 231.6 MB

-------------------------   --------------------
FINAL SINGLE POINT ENERGY      -305.604499281339
-------------------------   --------------------


                            ***************************************
                            *     ORCA property calculations      *
                            ***************************************

                                    ---------------------
                                    Active property flags
                                    ---------------------
   (+) Dipole Moment
   (+) Polarizability


------------------------------------------------------------------------------
                       ORCA ELECTRIC PROPERTIES CALCULATION
------------------------------------------------------------------------------

Dipole Moment Calculation                       ... on
Quadrupole Moment Calculation                   ... off
Polarizability Calculation                      ... Analytic (CP-SCF)
GBWName                                         ... phenol_efield_y_-0.016.gbw
Electron density                                ... phenol_efield_y_-0.016.scfp
The origin for moment calculation is the CENTER OF MASS  = ( 0.892295,  6.685629  0.017111)

-------------
DIPOLE MOMENT
-------------
                                X             Y             Z
Electronic contribution:     -1.75616      -1.31604      -0.22356
Nuclear contribution   :      2.09690      -0.00184       0.79546
                        -----------------------------------------
Total Dipole Moment    :      0.34073      -1.31787       0.57191
                        -----------------------------------------
Magnitude (a.u.)       :      1.47647
Magnitude (Debye)      :      3.75289



--------------------
Rotational spectrum 
--------------------
 
Rotational constants in cm-1:     0.187876     0.084795     0.058746 
Rotational constants in MHz :  5632.368735  2542.097443  1761.161239 

 Dipole components along the rotational axes: 
x,y,z [a.u.] :     0.333823     1.318226     0.575161 
x,y,z [Debye]:     0.848510     3.350663     1.461944 

 
Transforming and storing MO dipole integrals   ... done

                ... starting polarizability calculation

The origin for moment calculation is the CENTER OF MASS  = ( 0.892295,  6.685629  0.017111)
Opening the Dipole integral file               ... (phenol_efield_y_-0.016.dmo.tmp) done
Reading Dipole-MO integrals                    ... done
Solving CP-SCF equations                       ... 

           ************************************************************
           *        Program running with 16 parallel MPI-processes    *
           *              working on a common directory               *
           ************************************************************

------------------------------------------------------------------------------
                           ORCA CP-SCF CALCULATION
------------------------------------------------------------------------------

Input orbitals are from        ... phenol_efield_y_-0.016.gbw
Input Perturbation             ... phenol_efield_y_-0.016.cpv.tmp
Wavefunction output            ... phenol_efield_y_-0.016.cpu.tmp
Perturbation mode              ... Real perturbation (singlet)
Solver                         ... POPLE
Max. number of iterations      ... 64
Convergence tolerance          ... 3.000e-05
Integral handling              ... Direct
Number of perturbations        ... 3
Number of operators            ... 1
Orbital ranges used for CP-SCF:
 Operator 0:  Orbitals   0... 24  to  25...214
Variables per perturbation     ... 4750
Memory available               ... 1992.1 MB
Memory needed per perturbation ...   1.4 MB
Perturbations treated per batch... 3
Number of batches              ... 1
     CP-SCF ITERATION   0:   2.0241e+00 (   2.2 sec   0/  3 done)
     CP-SCF ITERATION   1:   4.2353e-01 (   2.2 sec   0/  3 done)
     CP-SCF ITERATION   2:   9.1388e-02 (   2.2 sec   0/  3 done)
     CP-SCF ITERATION   3:   3.9485e-02 (   2.2 sec   0/  3 done)
     CP-SCF ITERATION   4:   1.0743e-02 (   2.2 sec   0/  3 done)
     CP-SCF ITERATION   5:   3.7910e-03 (   2.2 sec   0/  3 done)
     CP-SCF ITERATION   6:   1.7026e-03 (   2.3 sec   0/  3 done)
     CP-SCF ITERATION   7:   7.2617e-04 (   2.3 sec   0/  3 done)
     CP-SCF ITERATION   8:   3.0548e-04 (   2.3 sec   0/  3 done)
     CP-SCF ITERATION   9:   9.4329e-05 (   2.3 sec   0/  3 done)
     CP-SCF ITERATION  10:   3.0379e-05 (   2.3 sec   2/  3 done)
     CP-SCF ITERATION  11:   1.1352e-05 (   1.6 sec   3/  3 done)
                    *** THE CP-SCF HAS CONVERGED ***
done
Reading CP-SCF coefficients                    ... done
Doing the polarizability tensor                ... done
Cleaning up                                    ... done

-------------------------
THE POLARIZABILITY TENSOR
-------------------------

The raw cartesian tensor (atomic units):
   88.56389     -0.05829     -1.44740  
   -0.05829     83.16807      0.01327  
   -1.44740      0.01327     48.54887  
diagonalized tensor: 
   48.49658     83.16745     88.61680  

    0.03610     -0.01078      0.99929  
   -0.00032     -0.99994     -0.01078  
    0.99935      0.00007     -0.03610  

Isotropic polarizability :  73.42694


Timings for individual modules:

Sum of individual times         ...       51.901 sec (=   0.865 min)
GTO integral calculation        ...        2.858 sec (=   0.048 min)   5.5 %
SCF iterations                  ...       20.051 sec (=   0.334 min)  38.6 %
Solution of CP-SCF eqns.        ...       28.992 sec (=   0.483 min)  55.9 %
                             ****ORCA TERMINATED NORMALLY****
TOTAL RUN TIME: 0 days 0 hours 0 minutes 55 seconds 134 msec
