
                                 *****************
                                 * O   R   C   A *
                                 *****************

                                            #,                                       
                                            ###                                      
                                            ####                                     
                                            #####                                    
                                            ######                                   
                                           ########,                                 
                                     ,,################,,,,,                         
                               ,,#################################,,                 
                          ,,##########################################,,             
                       ,#########################################, ''#####,          
                    ,#############################################,,   '####,        
                  ,##################################################,,,,####,       
                ,###########''''           ''''###############################       
              ,#####''   ,,,,##########,,,,          '''####'''          '####       
            ,##' ,,,,###########################,,,                        '##       
           ' ,,###''''                  '''############,,,                           
         ,,##''                                '''############,,,,        ,,,,,,###''
      ,#''                                            '''#######################'''  
     '                                                          ''''####''''         
             ,#######,   #######,   ,#######,      ##                                
            ,#'     '#,  ##    ##  ,#'     '#,    #''#        ######   ,####,        
            ##       ##  ##   ,#'  ##            #'  '#       #        #'  '#        
            ##       ##  #######   ##           ,######,      #####,   #    #        
            '#,     ,#'  ##    ##  '#,     ,#' ,#      #,         ##   #,  ,#        
             '#######'   ##     ##  '#######'  #'      '#     #####' # '####'        



                  #######################################################
                  #                        -***-                        #
                  #          Department of theory and spectroscopy      #
                  #    Directorship and core code : Frank Neese         #
                  #        Max Planck Institute fuer Kohlenforschung    #
                  #                Kaiser Wilhelm Platz 1               #
                  #                 D-45470 Muelheim/Ruhr               #
                  #                      Germany                        #
                  #                                                     #
                  #                  All rights reserved                #
                  #                        -***-                        #
                  #######################################################


                         Program Version 5.0.4 -  RELEASE  -


 With contributions from (in alphabetic order):
   Daniel Aravena         : Magnetic Suceptibility
   Michael Atanasov       : Ab Initio Ligand Field Theory (pilot matlab implementation)
   Alexander A. Auer      : GIAO ZORA, VPT2 properties, NMR spectrum
   Ute Becker             : Parallelization
   Giovanni Bistoni       : ED, misc. LED, open-shell LED, HFLD
   Martin Brehm           : Molecular dynamics
   Dmytro Bykov           : SCF Hessian
   Vijay G. Chilkuri      : MRCI spin determinant printing, contributions to CSF-ICE
   Dipayan Datta          : RHF DLPNO-CCSD density
   Achintya Kumar Dutta   : EOM-CC, STEOM-CC
   Dmitry Ganyushin       : Spin-Orbit,Spin-Spin,Magnetic field MRCI
   Miquel Garcia          : C-PCM and meta-GGA Hessian, CC/C-PCM, Gaussian charge scheme
   Yang Guo               : DLPNO-NEVPT2, F12-NEVPT2, CIM, IAO-localization
   Andreas Hansen         : Spin unrestricted coupled pair/coupled cluster methods
   Benjamin Helmich-Paris : MC-RPA, TRAH-SCF, COSX integrals
   Lee Huntington         : MR-EOM, pCC
   Robert Izsak           : Overlap fitted RIJCOSX, COSX-SCS-MP3, EOM
   Marcus Kettner         : VPT2
   Christian Kollmar      : KDIIS, OOCD, Brueckner-CCSD(T), CCSD density, CASPT2, CASPT2-K
   Simone Kossmann        : Meta GGA functionals, TD-DFT gradient, OOMP2, MP2 Hessian
   Martin Krupicka        : Initial AUTO-CI
   Lucas Lang             : DCDCAS
   Marvin Lechner         : AUTO-CI (C++ implementation), FIC-MRCC
   Dagmar Lenk            : GEPOL surface, SMD
   Dimitrios Liakos       : Extrapolation schemes; Compound Job, initial MDCI parallelization
   Dimitrios Manganas     : Further ROCIS development; embedding schemes
   Dimitrios Pantazis     : SARC Basis sets
   Anastasios Papadopoulos: AUTO-CI, single reference methods and gradients
   Taras Petrenko         : DFT Hessian,TD-DFT gradient, ASA, ECA, R-Raman, ABS, FL, XAS/XES, NRVS
   Peter Pinski           : DLPNO-MP2, DLPNO-MP2 Gradient
   Christoph Reimann      : Effective Core Potentials
   Marius Retegan         : Local ZFS, SOC
   Christoph Riplinger    : Optimizer, TS searches, QM/MM, DLPNO-CCSD(T), (RO)-DLPNO pert. Triples
   Tobias Risthaus        : Range-separated hybrids, TD-DFT gradient, RPA, STAB
   Michael Roemelt        : Original ROCIS implementation
   Masaaki Saitow         : Open-shell DLPNO-CCSD energy and density
   Barbara Sandhoefer     : DKH picture change effects
   Avijit Sen             : IP-ROCIS
   Kantharuban Sivalingam : CASSCF convergence, NEVPT2, FIC-MRCI
   Bernardo de Souza      : ESD, SOC TD-DFT
   Georgi Stoychev        : AutoAux, RI-MP2 NMR, DLPNO-MP2 response
   Willem Van den Heuvel  : Paramagnetic NMR
   Boris Wezisla          : Elementary symmetry handling
   Frank Wennmohs         : Technical directorship


 We gratefully acknowledge several colleagues who have allowed us to
 interface, adapt or use parts of their codes:
   Stefan Grimme, W. Hujo, H. Kruse, P. Pracht,  : VdW corrections, initial TS optimization,
                  C. Bannwarth, S. Ehlert          DFT functionals, gCP, sTDA/sTD-DF
   Ed Valeev, F. Pavosevic, A. Kumar             : LibInt (2-el integral package), F12 methods
   Garnet Chan, S. Sharma, J. Yang, R. Olivares  : DMRG
   Ulf Ekstrom                                   : XCFun DFT Library
   Mihaly Kallay                                 : mrcc  (arbitrary order and MRCC methods)
   Jiri Pittner, Ondrej Demel                    : Mk-CCSD
   Frank Weinhold                                : gennbo (NPA and NBO analysis)
   Christopher J. Cramer and Donald G. Truhlar   : smd solvation model
   Lars Goerigk                                  : TD-DFT with DH, B97 family of functionals
   V. Asgeirsson, H. Jonsson                     : NEB implementation
   FAccTs GmbH                                   : IRC, NEB, NEB-TS, DLPNO-Multilevel, CI-OPT
                                                   MM, QMMM, 2- and 3-layer-ONIOM, Crystal-QMMM,
                                                   LR-CPCM, SF, NACMEs, symmetry and pop. for TD-DFT,
                                                   nearIR, NL-DFT gradient (VV10), updates on ESD,
                                                   ML-optimized integration grids
   S Lehtola, MJT Oliveira, MAL Marques          : LibXC Library
   Liviu Ungur et al                             : ANISO software


 Your calculation uses the libint2 library for the computation of 2-el integrals
 For citations please refer to: http://libint.valeyev.net

 Your ORCA version has been built with support for libXC version: 5.1.0
 For citations please refer to: https://tddft.org/programs/libxc/

 This ORCA versions uses:
   CBLAS   interface :  Fast vector & matrix operations
   LAPACKE interface :  Fast linear algebra routines
   SCALAPACK package :  Parallel linear algebra routines
   Shared memory     :  Shared parallel matrices
   BLAS/LAPACK       :  OpenBLAS 0.3.15  USE64BITINT DYNAMIC_ARCH NO_AFFINITY SkylakeX SINGLE_THREADED
        Core in use  :  SkylakeX
   Copyright (c) 2011-2014, The OpenBLAS Project


================================================================================

----- Orbital basis set information -----
Your calculation utilizes the basis: aug-cc-pVDZ 
    H, B-Ne : Obtained from the ccRepo (grant-hill.group.shef.ac.uk/ccrepo) Feb. 2017
              R. A. Kendall, T. H. Dunning, Jr., R. J. Harrison, J. Chem. Phys. 96, 6796 (1992)
         He : Obtained from the ccRepo (grant-hill.group.shef.ac.uk/ccrepo) Feb. 2017
              D. E. Woon, T. H. Dunning, Jr., J. Chem. Phys. 100, 2975 (1994)
  Li-Be, Na : Obtained from the ccRepo (grant-hill.group.shef.ac.uk/ccrepo) Feb. 2017
              B. P. Prascher, D. E. Woon, K. A. Peterson, T. H. Dunning, Jr., A. K. Wilson, Theor. Chem. Acc. 128, 69 (2011)
         Mg : Obtained from the Peterson Research Group Website (tyr0.chem.wsu.edu/~kipeters) Feb. 2017
              B. P. Prascher, D. E. Woon, K. A. Peterson, T. H. Dunning, Jr., A. K. Wilson, Theor. Chem. Acc. 128, 69 (2011)
      Al-Ar : Obtained from the ccRepo (grant-hill.group.shef.ac.uk/ccrepo) Feb. 2017
              D. E. Woon, T. H. Dunning, Jr., J. Chem. Phys. 98, 1358 (1993)
      Sc-Zn : Obtained from the ccRepo (grant-hill.group.shef.ac.uk/ccrepo) Feb. 2017
              N. B. Balabanov, K. A. Peterson, J. Chem. Phys. 123, 064107 (2005)
              N. B. Balabanov, K. A. Peterson, J. Chem. Phys. 125, 074110 (2006)
      Ga-Kr : Obtained from the ccRepo (grant-hill.group.shef.ac.uk/ccrepo) Feb. 2017
              A. K. Wilson, D. E. Woon, K. A. Peterson, T. H. Dunning, Jr., J. Chem. Phys. 110, 7667 (1999)

================================================================================
                                        WARNINGS
                       Please study these warnings very carefully!
================================================================================


INFO   : the flag for use of the SHARK integral package has been found!

================================================================================
                                       INPUT FILE
================================================================================
NAME = phenol_efield_x_0.016.inp
|  1> ! hf aug-cc-pVDZ
|  2> ! MiniPrint VeryTightSCF
|  3> %pal
|  4>  nprocs 16
|  5> end
|  6> %MaxCore 2000
|  7> %scf
|  8>  maxiter=200
|  9>  efield 0.016 , 0.0 , 0.0
| 10> end
| 11> %elprop
| 12>   polar 1
| 13> end
| 14> * xyz 0 1
| 15>  C                  0.26178012    2.32984290    0.00000000
| 16>  C                  1.65694012    2.32984290    0.00000000
| 17>  C                  2.35447812    3.53759390    0.00000000
| 18>  C                  1.65682412    4.74610290   -0.00119900
| 19>  C                  0.26199912    4.74602490   -0.00167800
| 20>  C                 -0.43560188    3.53781890   -0.00068200
| 21>  H                 -0.28797888    1.37752590    0.00045000
| 22>  H                  2.20644812    1.37732990    0.00131500
| 23>  H                  3.45415812    3.53767390    0.00063400
| 24>  H                  2.20702412    5.69824590   -0.00125800
| 25>  H                 -0.28812288    5.69830590   -0.00263100
| 26>  O                 -1.86560184    3.53805688   -0.00091608
| 27>  H                 -2.18650479    3.53625036    0.90385905
| 28> *
| 29> 
| 30>                          ****END OF INPUT****
================================================================================

                       ****************************
                       * Single Point Calculation *
                       ****************************

---------------------------------
CARTESIAN COORDINATES (ANGSTROEM)
---------------------------------
  C      0.261780    2.329843    0.000000
  C      1.656940    2.329843    0.000000
  C      2.354478    3.537594    0.000000
  C      1.656824    4.746103   -0.001199
  C      0.261999    4.746025   -0.001678
  C     -0.435602    3.537819   -0.000682
  H     -0.287979    1.377526    0.000450
  H      2.206448    1.377330    0.001315
  H      3.454158    3.537674    0.000634
  H      2.207024    5.698246   -0.001258
  H     -0.288123    5.698306   -0.002631
  O     -1.865602    3.538057   -0.000916
  H     -2.186505    3.536250    0.903859

----------------------------
CARTESIAN COORDINATES (A.U.)
----------------------------
  NO LB      ZA    FRAG     MASS         X           Y           Z
   0 C     6.0000    0    12.011    0.494693    4.402765    0.000000
   1 C     6.0000    0    12.011    3.131163    4.402765    0.000000
   2 C     6.0000    0    12.011    4.449319    6.685084    0.000000
   3 C     6.0000    0    12.011    3.130944    8.968835   -0.002266
   4 C     6.0000    0    12.011    0.495107    8.968687   -0.003171
   5 C     6.0000    0    12.011   -0.823168    6.685509   -0.001289
   6 H     1.0000    0     1.008   -0.544201    2.603147    0.000850
   7 H     1.0000    0     1.008    4.169583    2.602776    0.002485
   8 H     1.0000    0     1.008    6.527413    6.685235    0.001198
   9 H     1.0000    0     1.008    4.170671   10.768124   -0.002377
  10 H     1.0000    0     1.008   -0.544473   10.768238   -0.004972
  11 O     8.0000    0    15.999   -3.525477    6.685959   -0.001731
  12 H     1.0000    0     1.008   -4.131895    6.682545    1.708046



           ************************************************************
           *        Program running with 16 parallel MPI-processes    *
           *              working on a common directory               *
           ************************************************************
------------------------------------------------------------------------------
                   ___                                                        
                  /   \      - P O W E R E D   B Y -                         
                 /     \                                                     
                 |  |  |   _    _      __       _____    __    __             
                 |  |  |  | |  | |    /  \     |  _  \  |  |  /  |          
                  \  \/   | |  | |   /    \    | | | |  |  | /  /          
                 / \  \   | |__| |  /  /\  \   | |_| |  |  |/  /          
                |  |  |   |  __  | /  /__\  \  |    /   |      \           
                |  |  |   | |  | | |   __   |  |    \   |  |\   \          
                \     /   | |  | | |  |  |  |  | |\  \  |  | \   \       
                 \___/    |_|  |_| |__|  |__|  |_| \__\ |__|  \__/        
                                                                              
                      - O R C A' S   B I G   F R I E N D -                    
                                      &                                       
                       - I N T E G R A L  F E E D E R -                       
                                                                              
 v1 FN, 2020, v2 2021                                                         
------------------------------------------------------------------------------


Reading SHARK input file phenol_efield_x_0.016.SHARKINP.tmp ... ok
----------------------
SHARK INTEGRAL PACKAGE
----------------------

Number of atoms                             ...     13
Number of basis functions                   ...    257
Number of shells                            ...    135
Maximum angular momentum                    ...      2
Integral batch strategy                     ... SHARK/LIBINT Hybrid
RI-J (if used) integral strategy            ... SPLIT-RIJ (Revised 2003 algorithm where possible)
Printlevel                                  ...      1
Contraction scheme used                     ... PARTIAL GENERAL contraction
Coulomb Range Separation                    ... NOT USED
Exchange Range Separation                   ... NOT USED
Finite Nucleus Model                        ... NOT USED
Auxiliary Coulomb fitting basis             ... NOT available
Auxiliary J/K fitting basis                 ... NOT available
Auxiliary Correlation fitting basis         ... NOT available
Auxiliary 'external' fitting basis          ... NOT available
Integral threshold                          ...     1.000000e-12
Primitive cut-off                           ...     1.000000e-14
Primitive pair pre-selection threshold      ...     1.000000e-14

Calculating pre-screening integrals         ... done (  0.0 sec) Dimension = 135
Calculating pre-screening integrals (ORCA)  ... done (  0.1 sec) Dimension = 93
Organizing shell pair data                  ... done (  0.0 sec)
Shell pair information
Total number of shell pairs                 ...      9180
Shell pairs after pre-screening             ...      8071
Total number of primitive shell pairs       ...     13080
Primitive shell pairs kept                  ...     10795
          la=0 lb=0:   2934 shell pairs
          la=1 lb=0:   2805 shell pairs
          la=1 lb=1:    559 shell pairs
          la=2 lb=0:   1207 shell pairs
          la=2 lb=1:    461 shell pairs
          la=2 lb=2:    105 shell pairs

Calculating one electron integrals          ... done (  0.0 sec)
Calculating Nuclear repulsion               ... done (  0.0 sec) ENN=    268.852435669254 Eh

SHARK setup successfully completed in   0.3 seconds

Maximum memory used throughout the entire GTOINT-calculation: 17.0 MB

An Electric Field will be added: 1.600e-02 0.000e+00 0.000e+00 au

  ... done adding electric field perturbation



           ************************************************************
           *        Program running with 16 parallel MPI-processes    *
           *              working on a common directory               *
           ************************************************************

Diagonalization of the overlap matrix:
Smallest eigenvalue                        ... 2.604e-06
Time for diagonalization                   ...    0.006 sec
Threshold for overlap eigenvalues          ... 1.000e-08
Number of eigenvalues below threshold      ... 0
Time for construction of square roots      ...    0.016 sec
Total time needed                          ...    0.022 sec

Time for model grid setup =    0.059 sec

Loading Hartree-Fock densities                     ... done
Calculating cut-offs                               ... done
Initializing the effective Hamiltonian             ... done
Setting up the integral package (SHARK)            ... done
Starting the Coulomb interaction                   ... done (   0.0 sec)
Reading the grid                                   ... done
Mapping shells                                     ... done
Starting the XC term evaluation                    ... done (   0.0 sec)
Transforming the Hamiltonian                       ... done (   0.0 sec)
Diagonalizing the Hamiltonian                      ... done (   0.0 sec)
Back transforming the eigenvectors                 ... done (   0.0 sec)
Now organizing SCF variables                       ... done
--------------
SCF ITERATIONS
--------------
ITER       Energy         Delta-E        Max-DP      RMS-DP      [F,P]     Damp
               ***  Starting incremental Fock matrix formation  ***
  0   -305.3494561543   0.000000000000 1.02289155  0.02375497  0.2449613 0.7000
  1   -305.4398324355  -0.090376281246 0.75314138  0.01776843  0.1497855 0.7000
                               ***Turning on DIIS***
  2   -305.4952168267  -0.055384391134 1.73861096  0.04114151  0.0837928 0.0000
  3   -305.0037209111   0.491495915583 0.04122306  0.00156046  0.0486042 0.0000
  4   -305.5666656119  -0.562944700818 0.04472126  0.00096066  0.0052866 0.0000
  5   -305.5978348976  -0.031169285658 0.01869366  0.00037799  0.0044232 0.0000
                      *** Initiating the SOSCF procedure ***
                           *** Shutting down DIIS ***
                      *** Re-Reading the Fockian *** 
                      *** Removing any level shift *** 
ITER      Energy       Delta-E        Grad      Rot      Max-DP    RMS-DP
  6   -305.60860679  -0.0107718916  0.000348  0.000348  0.002544  0.000078
               *** Restarting incremental Fock matrix formation ***
  7   -305.61063719  -0.0020303965  0.000171  0.000390  0.003087  0.000077
  8   -305.61063910  -0.0000019113  0.000066  0.000306  0.002905  0.000060
  9   -305.61063960  -0.0000005080  0.000034  0.000083  0.000333  0.000010
 10   -305.61063967  -0.0000000621  0.000021  0.000048  0.000351  0.000008
 11   -305.61063968  -0.0000000174  0.000009  0.000039  0.000186  0.000004
 12   -305.61063969  -0.0000000046  0.000003  0.000010  0.000042  0.000001
 13   -305.61063969  -0.0000000003  0.000001  0.000002  0.000026  0.000001
                  ***Gradient check signals convergence***
              ***Rediagonalizing the Fockian in SOSCF/NRSCF***

               *****************************************************
               *                     SUCCESS                       *
               *           SCF CONVERGED AFTER  14 CYCLES          *
               *****************************************************

Total Energy       :         -305.61063969 Eh           -8316.08829 eV
  Last Energy change         ...   -3.2401e-11  Tolerance :   1.0000e-09
  Last MAX-Density change    ...    1.0347e-05  Tolerance :   1.0000e-08
             **** THE GBW FILE WAS UPDATED (phenol_efield_x_0.016.gbw) ****
             **** DENSITY phenol_efield_x_0.016.scfp WAS UPDATED ****
             **** ENERGY FILE WAS UPDATED (phenol_efield_x_0.016.en.tmp) ****
             **** THE GBW FILE WAS UPDATED (phenol_efield_x_0.016.gbw) ****
             **** DENSITY phenol_efield_x_0.016.scfp WAS UPDATED ****
----------------
ORBITAL ENERGIES
----------------

  NO   OCC          E(Eh)            E(eV) 
   0   2.0000     -20.624819      -561.2299 
   1   2.0000     -11.308405      -307.7173 
   2   2.0000     -11.242959      -305.9365 
   3   2.0000     -11.242931      -305.9357 
   4   2.0000     -11.233571      -305.6810 
   5   2.0000     -11.233478      -305.6785 
   6   2.0000     -11.221009      -305.3392 
   7   2.0000      -1.410614       -38.3847 
   8   2.0000      -1.143584       -31.1185 
   9   2.0000      -1.013321       -27.5739 
  10   2.0000      -1.000697       -27.2303 
  11   2.0000      -0.827116       -22.5070 
  12   2.0000      -0.822485       -22.3810 
  13   2.0000      -0.736646       -20.0452 
  14   2.0000      -0.674739       -18.3606 
  15   2.0000      -0.643765       -17.5177 
  16   2.0000      -0.635508       -17.2931 
  17   2.0000      -0.590757       -16.0753 
  18   2.0000      -0.580695       -15.8015 
  19   2.0000      -0.534988       -14.5578 
  20   2.0000      -0.497735       -13.5441 
  21   2.0000      -0.491154       -13.3650 
  22   2.0000      -0.478647       -13.0246 
  23   2.0000      -0.333070        -9.0633 
  24   2.0000      -0.324540        -8.8312 
  25   0.0000      -0.070789        -1.9263 
  26   0.0000      -0.013963        -0.3799 
  27   0.0000      -0.002788        -0.0759 
  28   0.0000       0.043678         1.1886 
  29   0.0000       0.088207         2.4002 
  30   0.0000       0.090858         2.4724 
  31   0.0000       0.104911         2.8548 
  32   0.0000       0.106285         2.8922 
  33   0.0000       0.108660         2.9568 
  34   0.0000       0.112974         3.0742 
  35   0.0000       0.118472         3.2238 
  36   0.0000       0.145172         3.9503 
  37   0.0000       0.148486         4.0405 
  38   0.0000       0.148566         4.0427 
  39   0.0000       0.152448         4.1483 
  40   0.0000       0.166652         4.5348 
  41   0.0000       0.172717         4.6999 
  42   0.0000       0.182959         4.9786 
  43   0.0000       0.186322         5.0701 
  44   0.0000       0.195813         5.3283 
  45   0.0000       0.209146         5.6912 
  46   0.0000       0.223189         6.0733 
  47   0.0000       0.228395         6.2150 
  48   0.0000       0.231434         6.2976 
  49   0.0000       0.233560         6.3555 
  50   0.0000       0.249176         6.7804 
  51   0.0000       0.255327         6.9478 
  52   0.0000       0.256587         6.9821 
  53   0.0000       0.263274         7.1640 
  54   0.0000       0.288151         7.8410 
  55   0.0000       0.303034         8.2460 
  56   0.0000       0.314052         8.5458 
  57   0.0000       0.322039         8.7631 
  58   0.0000       0.336776         9.1641 
  59   0.0000       0.344062         9.3624 
  60   0.0000       0.354760         9.6535 
  61   0.0000       0.356375         9.6975 
  62   0.0000       0.363227         9.8839 
  63   0.0000       0.363754         9.8983 
  64   0.0000       0.380404        10.3513 
  65   0.0000       0.382891        10.4190 
  66   0.0000       0.390195        10.6178 
  67   0.0000       0.404159        10.9977 
  68   0.0000       0.410170        11.1613 
  69   0.0000       0.426483        11.6052 
  70   0.0000       0.431362        11.7380 
  71   0.0000       0.433433        11.7943 
  72   0.0000       0.455019        12.3817 
  73   0.0000       0.463192        12.6041 
  74   0.0000       0.465579        12.6691 
  75   0.0000       0.492333        13.3971 
  76   0.0000       0.502447        13.6723 
  77   0.0000       0.517200        14.0737 
  78   0.0000       0.518451        14.1078 
  79   0.0000       0.523351        14.2411 
  80   0.0000       0.539576        14.6826 
  81   0.0000       0.581740        15.8299 
  82   0.0000       0.590674        16.0731 
  83   0.0000       0.599572        16.3152 
  84   0.0000       0.601636        16.3713 
  85   0.0000       0.604729        16.4555 
  86   0.0000       0.608730        16.5644 
  87   0.0000       0.624364        16.9898 
  88   0.0000       0.638971        17.3873 
  89   0.0000       0.655694        17.8423 
  90   0.0000       0.671175        18.2636 
  91   0.0000       0.672910        18.3108 
  92   0.0000       0.692062        18.8320 
  93   0.0000       0.693981        18.8842 
  94   0.0000       0.709370        19.3029 
  95   0.0000       0.711270        19.3546 
  96   0.0000       0.720797        19.6139 
  97   0.0000       0.723925        19.6990 
  98   0.0000       0.735779        20.0216 
  99   0.0000       0.764980        20.8162 
 100   0.0000       0.766325        20.8528 
 101   0.0000       0.776824        21.1385 
 102   0.0000       0.791800        21.5460 
 103   0.0000       0.802662        21.8415 
 104   0.0000       0.818517        22.2730 
 105   0.0000       0.849856        23.1258 
 106   0.0000       0.866780        23.5863 
 107   0.0000       0.881202        23.9787 
 108   0.0000       0.884281        24.0625 
 109   0.0000       0.887250        24.1433 
 110   0.0000       0.896603        24.3978 
 111   0.0000       0.918697        24.9990 
 112   0.0000       0.929634        25.2966 
 113   0.0000       0.945243        25.7214 
 114   0.0000       0.948182        25.8013 
 115   0.0000       0.951529        25.8924 
 116   0.0000       0.960345        26.1323 
 117   0.0000       0.983488        26.7621 
 118   0.0000       0.989671        26.9303 
 119   0.0000       0.994708        27.0674 
 120   0.0000       1.010276        27.4910 
 121   0.0000       1.013662        27.5831 
 122   0.0000       1.036993        28.2180 
 123   0.0000       1.052303        28.6346 
 124   0.0000       1.084000        29.4971 
 125   0.0000       1.098638        29.8955 
 126   0.0000       1.133375        30.8407 
 127   0.0000       1.175733        31.9933 
 128   0.0000       1.180986        32.1363 
 129   0.0000       1.189169        32.3589 
 130   0.0000       1.214342        33.0439 
 131   0.0000       1.279198        34.8088 
 132   0.0000       1.334406        36.3110 
 133   0.0000       1.383706        37.6526 
 134   0.0000       1.403537        38.1922 
 135   0.0000       1.439566        39.1726 
 136   0.0000       1.466631        39.9091 
 137   0.0000       1.481288        40.3079 
 138   0.0000       1.494396        40.6646 
 139   0.0000       1.520628        41.3784 
 140   0.0000       1.550303        42.1859 
 141   0.0000       1.553854        42.2825 
 142   0.0000       1.580336        43.0031 
 143   0.0000       1.597694        43.4755 
 144   0.0000       1.609761        43.8038 
 145   0.0000       1.642060        44.6827 
 146   0.0000       1.652604        44.9696 
 147   0.0000       1.655614        45.0515 
 148   0.0000       1.659642        45.1611 
 149   0.0000       1.668556        45.4037 
 150   0.0000       1.675853        45.6023 
 151   0.0000       1.709236        46.5107 
 152   0.0000       1.715095        46.6701 
 153   0.0000       1.722235        46.8644 
 154   0.0000       1.740340        47.3571 
 155   0.0000       1.769701        48.1560 
 156   0.0000       1.797376        48.9091 
 157   0.0000       1.810208        49.2583 
 158   0.0000       1.860530        50.6276 
 159   0.0000       1.879240        51.1367 
 160   0.0000       1.896563        51.6081 
 161   0.0000       1.900323        51.7104 
 162   0.0000       1.907186        51.8972 
 163   0.0000       1.940297        52.7982 
 164   0.0000       1.940907        52.8148 
 165   0.0000       1.974090        53.7177 
 166   0.0000       1.976397        53.7805 
 167   0.0000       1.990249        54.1574 
 168   0.0000       1.997895        54.3655 
 169   0.0000       2.046086        55.6768 
 170   0.0000       2.055401        55.9303 
 171   0.0000       2.117206        57.6121 
 172   0.0000       2.126688        57.8701 
 173   0.0000       2.128082        57.9081 
 174   0.0000       2.159129        58.7529 
 175   0.0000       2.184283        59.4374 
 176   0.0000       2.203006        59.9468 
 177   0.0000       2.218430        60.3665 
 178   0.0000       2.224294        60.5261 
 179   0.0000       2.254905        61.3591 
 180   0.0000       2.262232        61.5585 
 181   0.0000       2.289894        62.3112 
 182   0.0000       2.340737        63.6947 
 183   0.0000       2.366965        64.4084 
 184   0.0000       2.378973        64.7351 
 185   0.0000       2.381713        64.8097 
 186   0.0000       2.423890        65.9574 
 187   0.0000       2.458151        66.8897 
 188   0.0000       2.460155        66.9442 
 189   0.0000       2.589356        70.4599 
 190   0.0000       2.632428        71.6320 
 191   0.0000       2.675050        72.7918 
 192   0.0000       2.711380        73.7804 
 193   0.0000       2.768402        75.3320 
 194   0.0000       2.787065        75.8399 
 195   0.0000       2.790402        75.9307 
 196   0.0000       2.840529        77.2947 
 197   0.0000       2.902310        78.9759 
 198   0.0000       2.953952        80.3811 
 199   0.0000       3.007943        81.8503 
 200   0.0000       3.055576        83.1465 
 201   0.0000       3.097974        84.3001 
 202   0.0000       3.145625        85.5968 
 203   0.0000       3.214080        87.4596 
 204   0.0000       3.293077        89.6092 
 205   0.0000       3.334664        90.7408 
 206   0.0000       3.504815        95.3709 
 207   0.0000       3.562298        96.9351 
 208   0.0000       3.727584       101.4327 
 209   0.0000       3.732611       101.5695 
 210   0.0000       3.817688       103.8846 
 211   0.0000       3.888524       105.8121 
 212   0.0000       3.979235       108.2805 
 213   0.0000       4.227373       115.0327 
 214   0.0000       4.727368       128.6382 
Total SCF time: 0 days 0 hours 0 min 17 sec 

Maximum memory used throughout the entire SCF-calculation: 231.6 MB

-------------------------   --------------------
FINAL SINGLE POINT ENERGY      -305.610639689321
-------------------------   --------------------


                            ***************************************
                            *     ORCA property calculations      *
                            ***************************************

                                    ---------------------
                                    Active property flags
                                    ---------------------
   (+) Dipole Moment
   (+) Polarizability


------------------------------------------------------------------------------
                       ORCA ELECTRIC PROPERTIES CALCULATION
------------------------------------------------------------------------------

Dipole Moment Calculation                       ... on
Quadrupole Moment Calculation                   ... off
Polarizability Calculation                      ... Analytic (CP-SCF)
GBWName                                         ... phenol_efield_x_0.016.gbw
Electron density                                ... phenol_efield_x_0.016.scfp
The origin for moment calculation is the CENTER OF MASS  = ( 0.892295,  6.685629  0.017111)

-------------
DIPOLE MOMENT
-------------
                                X             Y             Z
Electronic contribution:     -0.35618       0.00078      -0.24725
Nuclear contribution   :      2.09690      -0.00184       0.79546
                        -----------------------------------------
Total Dipole Moment    :      1.74072      -0.00106       0.54822
                        -----------------------------------------
Magnitude (a.u.)       :      1.82501
Magnitude (Debye)      :      4.63880



--------------------
Rotational spectrum 
--------------------
 
Rotational constants in cm-1:     0.187876     0.084795     0.058746 
Rotational constants in MHz :  5632.368735  2542.097443  1761.161239 

 Dipole components along the rotational axes: 
x,y,z [a.u.] :     1.733949     0.001359     0.569270 
x,y,z [Debye]:     4.407348     0.003454     1.446970 

 
Transforming and storing MO dipole integrals   ... done

                ... starting polarizability calculation

The origin for moment calculation is the CENTER OF MASS  = ( 0.892295,  6.685629  0.017111)
Opening the Dipole integral file               ... (phenol_efield_x_0.016.dmo.tmp) done
Reading Dipole-MO integrals                    ... done
Solving CP-SCF equations                       ... 

           ************************************************************
           *        Program running with 16 parallel MPI-processes    *
           *              working on a common directory               *
           ************************************************************

------------------------------------------------------------------------------
                           ORCA CP-SCF CALCULATION
------------------------------------------------------------------------------

Input orbitals are from        ... phenol_efield_x_0.016.gbw
Input Perturbation             ... phenol_efield_x_0.016.cpv.tmp
Wavefunction output            ... phenol_efield_x_0.016.cpu.tmp
Perturbation mode              ... Real perturbation (singlet)
Solver                         ... POPLE
Max. number of iterations      ... 64
Convergence tolerance          ... 3.000e-05
Integral handling              ... Direct
Number of perturbations        ... 3
Number of operators            ... 1
Orbital ranges used for CP-SCF:
 Operator 0:  Orbitals   0... 24  to  25...214
Variables per perturbation     ... 4750
Memory available               ... 1992.1 MB
Memory needed per perturbation ...   1.4 MB
Perturbations treated per batch... 3
Number of batches              ... 1
     CP-SCF ITERATION   0:   2.0188e+00 (   2.1 sec   0/  3 done)
     CP-SCF ITERATION   1:   4.1190e-01 (   2.2 sec   0/  3 done)
     CP-SCF ITERATION   2:   8.7596e-02 (   2.2 sec   0/  3 done)
     CP-SCF ITERATION   3:   3.7402e-02 (   2.2 sec   0/  3 done)
     CP-SCF ITERATION   4:   1.0170e-02 (   2.2 sec   0/  3 done)
     CP-SCF ITERATION   5:   3.5259e-03 (   2.2 sec   0/  3 done)
     CP-SCF ITERATION   6:   2.1426e-03 (   2.2 sec   0/  3 done)
     CP-SCF ITERATION   7:   8.4228e-04 (   2.2 sec   0/  3 done)
     CP-SCF ITERATION   8:   2.8585e-04 (   2.2 sec   0/  3 done)
     CP-SCF ITERATION   9:   8.4873e-05 (   2.3 sec   1/  3 done)
     CP-SCF ITERATION  10:   2.0553e-05 (   1.9 sec   3/  3 done)
                    *** THE CP-SCF HAS CONVERGED ***
done
Reading CP-SCF coefficients                    ... done
Doing the polarizability tensor                ... done
Cleaning up                                    ... done

-------------------------
THE POLARIZABILITY TENSOR
-------------------------

The raw cartesian tensor (atomic units):
   87.33647      0.00237     -1.51781  
    0.00237     82.38116     -0.02363  
   -1.51781     -0.02363     47.73576  
diagonalized tensor: 
   47.67765     82.38117     87.39457  

    0.03824     -0.00068     -0.99927  
    0.00068      1.00000     -0.00065  
    0.99927     -0.00065      0.03824  

Isotropic polarizability :  72.48447


Timings for individual modules:

Sum of individual times         ...       49.708 sec (=   0.828 min)
GTO integral calculation        ...        2.870 sec (=   0.048 min)   5.8 %
SCF iterations                  ...       20.032 sec (=   0.334 min)  40.3 %
Solution of CP-SCF eqns.        ...       26.806 sec (=   0.447 min)  53.9 %
                             ****ORCA TERMINATED NORMALLY****
TOTAL RUN TIME: 0 days 0 hours 0 minutes 52 seconds 900 msec
