
                                 *****************
                                 * O   R   C   A *
                                 *****************

                                            #,                                       
                                            ###                                      
                                            ####                                     
                                            #####                                    
                                            ######                                   
                                           ########,                                 
                                     ,,################,,,,,                         
                               ,,#################################,,                 
                          ,,##########################################,,             
                       ,#########################################, ''#####,          
                    ,#############################################,,   '####,        
                  ,##################################################,,,,####,       
                ,###########''''           ''''###############################       
              ,#####''   ,,,,##########,,,,          '''####'''          '####       
            ,##' ,,,,###########################,,,                        '##       
           ' ,,###''''                  '''############,,,                           
         ,,##''                                '''############,,,,        ,,,,,,###''
      ,#''                                            '''#######################'''  
     '                                                          ''''####''''         
             ,#######,   #######,   ,#######,      ##                                
            ,#'     '#,  ##    ##  ,#'     '#,    #''#        ######   ,####,        
            ##       ##  ##   ,#'  ##            #'  '#       #        #'  '#        
            ##       ##  #######   ##           ,######,      #####,   #    #        
            '#,     ,#'  ##    ##  '#,     ,#' ,#      #,         ##   #,  ,#        
             '#######'   ##     ##  '#######'  #'      '#     #####' # '####'        



                  #######################################################
                  #                        -***-                        #
                  #          Department of theory and spectroscopy      #
                  #    Directorship and core code : Frank Neese         #
                  #        Max Planck Institute fuer Kohlenforschung    #
                  #                Kaiser Wilhelm Platz 1               #
                  #                 D-45470 Muelheim/Ruhr               #
                  #                      Germany                        #
                  #                                                     #
                  #                  All rights reserved                #
                  #                        -***-                        #
                  #######################################################


                         Program Version 5.0.4 -  RELEASE  -


 With contributions from (in alphabetic order):
   Daniel Aravena         : Magnetic Suceptibility
   Michael Atanasov       : Ab Initio Ligand Field Theory (pilot matlab implementation)
   Alexander A. Auer      : GIAO ZORA, VPT2 properties, NMR spectrum
   Ute Becker             : Parallelization
   Giovanni Bistoni       : ED, misc. LED, open-shell LED, HFLD
   Martin Brehm           : Molecular dynamics
   Dmytro Bykov           : SCF Hessian
   Vijay G. Chilkuri      : MRCI spin determinant printing, contributions to CSF-ICE
   Dipayan Datta          : RHF DLPNO-CCSD density
   Achintya Kumar Dutta   : EOM-CC, STEOM-CC
   Dmitry Ganyushin       : Spin-Orbit,Spin-Spin,Magnetic field MRCI
   Miquel Garcia          : C-PCM and meta-GGA Hessian, CC/C-PCM, Gaussian charge scheme
   Yang Guo               : DLPNO-NEVPT2, F12-NEVPT2, CIM, IAO-localization
   Andreas Hansen         : Spin unrestricted coupled pair/coupled cluster methods
   Benjamin Helmich-Paris : MC-RPA, TRAH-SCF, COSX integrals
   Lee Huntington         : MR-EOM, pCC
   Robert Izsak           : Overlap fitted RIJCOSX, COSX-SCS-MP3, EOM
   Marcus Kettner         : VPT2
   Christian Kollmar      : KDIIS, OOCD, Brueckner-CCSD(T), CCSD density, CASPT2, CASPT2-K
   Simone Kossmann        : Meta GGA functionals, TD-DFT gradient, OOMP2, MP2 Hessian
   Martin Krupicka        : Initial AUTO-CI
   Lucas Lang             : DCDCAS
   Marvin Lechner         : AUTO-CI (C++ implementation), FIC-MRCC
   Dagmar Lenk            : GEPOL surface, SMD
   Dimitrios Liakos       : Extrapolation schemes; Compound Job, initial MDCI parallelization
   Dimitrios Manganas     : Further ROCIS development; embedding schemes
   Dimitrios Pantazis     : SARC Basis sets
   Anastasios Papadopoulos: AUTO-CI, single reference methods and gradients
   Taras Petrenko         : DFT Hessian,TD-DFT gradient, ASA, ECA, R-Raman, ABS, FL, XAS/XES, NRVS
   Peter Pinski           : DLPNO-MP2, DLPNO-MP2 Gradient
   Christoph Reimann      : Effective Core Potentials
   Marius Retegan         : Local ZFS, SOC
   Christoph Riplinger    : Optimizer, TS searches, QM/MM, DLPNO-CCSD(T), (RO)-DLPNO pert. Triples
   Tobias Risthaus        : Range-separated hybrids, TD-DFT gradient, RPA, STAB
   Michael Roemelt        : Original ROCIS implementation
   Masaaki Saitow         : Open-shell DLPNO-CCSD energy and density
   Barbara Sandhoefer     : DKH picture change effects
   Avijit Sen             : IP-ROCIS
   Kantharuban Sivalingam : CASSCF convergence, NEVPT2, FIC-MRCI
   Bernardo de Souza      : ESD, SOC TD-DFT
   Georgi Stoychev        : AutoAux, RI-MP2 NMR, DLPNO-MP2 response
   Willem Van den Heuvel  : Paramagnetic NMR
   Boris Wezisla          : Elementary symmetry handling
   Frank Wennmohs         : Technical directorship


 We gratefully acknowledge several colleagues who have allowed us to
 interface, adapt or use parts of their codes:
   Stefan Grimme, W. Hujo, H. Kruse, P. Pracht,  : VdW corrections, initial TS optimization,
                  C. Bannwarth, S. Ehlert          DFT functionals, gCP, sTDA/sTD-DF
   Ed Valeev, F. Pavosevic, A. Kumar             : LibInt (2-el integral package), F12 methods
   Garnet Chan, S. Sharma, J. Yang, R. Olivares  : DMRG
   Ulf Ekstrom                                   : XCFun DFT Library
   Mihaly Kallay                                 : mrcc  (arbitrary order and MRCC methods)
   Jiri Pittner, Ondrej Demel                    : Mk-CCSD
   Frank Weinhold                                : gennbo (NPA and NBO analysis)
   Christopher J. Cramer and Donald G. Truhlar   : smd solvation model
   Lars Goerigk                                  : TD-DFT with DH, B97 family of functionals
   V. Asgeirsson, H. Jonsson                     : NEB implementation
   FAccTs GmbH                                   : IRC, NEB, NEB-TS, DLPNO-Multilevel, CI-OPT
                                                   MM, QMMM, 2- and 3-layer-ONIOM, Crystal-QMMM,
                                                   LR-CPCM, SF, NACMEs, symmetry and pop. for TD-DFT,
                                                   nearIR, NL-DFT gradient (VV10), updates on ESD,
                                                   ML-optimized integration grids
   S Lehtola, MJT Oliveira, MAL Marques          : LibXC Library
   Liviu Ungur et al                             : ANISO software


 Your calculation uses the libint2 library for the computation of 2-el integrals
 For citations please refer to: http://libint.valeyev.net

 Your ORCA version has been built with support for libXC version: 5.1.0
 For citations please refer to: https://tddft.org/programs/libxc/

 This ORCA versions uses:
   CBLAS   interface :  Fast vector & matrix operations
   LAPACKE interface :  Fast linear algebra routines
   SCALAPACK package :  Parallel linear algebra routines
   Shared memory     :  Shared parallel matrices
   BLAS/LAPACK       :  OpenBLAS 0.3.15  USE64BITINT DYNAMIC_ARCH NO_AFFINITY SkylakeX SINGLE_THREADED
        Core in use  :  SkylakeX
   Copyright (c) 2011-2014, The OpenBLAS Project


================================================================================

----- Orbital basis set information -----
Your calculation utilizes the basis: aug-cc-pVDZ 
    H, B-Ne : Obtained from the ccRepo (grant-hill.group.shef.ac.uk/ccrepo) Feb. 2017
              R. A. Kendall, T. H. Dunning, Jr., R. J. Harrison, J. Chem. Phys. 96, 6796 (1992)
         He : Obtained from the ccRepo (grant-hill.group.shef.ac.uk/ccrepo) Feb. 2017
              D. E. Woon, T. H. Dunning, Jr., J. Chem. Phys. 100, 2975 (1994)
  Li-Be, Na : Obtained from the ccRepo (grant-hill.group.shef.ac.uk/ccrepo) Feb. 2017
              B. P. Prascher, D. E. Woon, K. A. Peterson, T. H. Dunning, Jr., A. K. Wilson, Theor. Chem. Acc. 128, 69 (2011)
         Mg : Obtained from the Peterson Research Group Website (tyr0.chem.wsu.edu/~kipeters) Feb. 2017
              B. P. Prascher, D. E. Woon, K. A. Peterson, T. H. Dunning, Jr., A. K. Wilson, Theor. Chem. Acc. 128, 69 (2011)
      Al-Ar : Obtained from the ccRepo (grant-hill.group.shef.ac.uk/ccrepo) Feb. 2017
              D. E. Woon, T. H. Dunning, Jr., J. Chem. Phys. 98, 1358 (1993)
      Sc-Zn : Obtained from the ccRepo (grant-hill.group.shef.ac.uk/ccrepo) Feb. 2017
              N. B. Balabanov, K. A. Peterson, J. Chem. Phys. 123, 064107 (2005)
              N. B. Balabanov, K. A. Peterson, J. Chem. Phys. 125, 074110 (2006)
      Ga-Kr : Obtained from the ccRepo (grant-hill.group.shef.ac.uk/ccrepo) Feb. 2017
              A. K. Wilson, D. E. Woon, K. A. Peterson, T. H. Dunning, Jr., J. Chem. Phys. 110, 7667 (1999)

================================================================================
                                        WARNINGS
                       Please study these warnings very carefully!
================================================================================


INFO   : the flag for use of the SHARK integral package has been found!

================================================================================
                                       INPUT FILE
================================================================================
NAME = phenol_efield_y_0.032.inp
|  1> ! hf aug-cc-pVDZ
|  2> ! MiniPrint VeryTightSCF
|  3> %pal
|  4>  nprocs 16
|  5> end
|  6> %MaxCore 2000
|  7> %scf
|  8>  maxiter=200
|  9>  efield 0.0 , 0.032 , 0.0
| 10> end
| 11> %elprop
| 12>   polar 1
| 13> end
| 14> * xyz 0 1
| 15>  C                  0.26178012    2.32984290    0.00000000
| 16>  C                  1.65694012    2.32984290    0.00000000
| 17>  C                  2.35447812    3.53759390    0.00000000
| 18>  C                  1.65682412    4.74610290   -0.00119900
| 19>  C                  0.26199912    4.74602490   -0.00167800
| 20>  C                 -0.43560188    3.53781890   -0.00068200
| 21>  H                 -0.28797888    1.37752590    0.00045000
| 22>  H                  2.20644812    1.37732990    0.00131500
| 23>  H                  3.45415812    3.53767390    0.00063400
| 24>  H                  2.20702412    5.69824590   -0.00125800
| 25>  H                 -0.28812288    5.69830590   -0.00263100
| 26>  O                 -1.86560184    3.53805688   -0.00091608
| 27>  H                 -2.18650479    3.53625036    0.90385905
| 28> *
| 29> 
| 30>                          ****END OF INPUT****
================================================================================

                       ****************************
                       * Single Point Calculation *
                       ****************************

---------------------------------
CARTESIAN COORDINATES (ANGSTROEM)
---------------------------------
  C      0.261780    2.329843    0.000000
  C      1.656940    2.329843    0.000000
  C      2.354478    3.537594    0.000000
  C      1.656824    4.746103   -0.001199
  C      0.261999    4.746025   -0.001678
  C     -0.435602    3.537819   -0.000682
  H     -0.287979    1.377526    0.000450
  H      2.206448    1.377330    0.001315
  H      3.454158    3.537674    0.000634
  H      2.207024    5.698246   -0.001258
  H     -0.288123    5.698306   -0.002631
  O     -1.865602    3.538057   -0.000916
  H     -2.186505    3.536250    0.903859

----------------------------
CARTESIAN COORDINATES (A.U.)
----------------------------
  NO LB      ZA    FRAG     MASS         X           Y           Z
   0 C     6.0000    0    12.011    0.494693    4.402765    0.000000
   1 C     6.0000    0    12.011    3.131163    4.402765    0.000000
   2 C     6.0000    0    12.011    4.449319    6.685084    0.000000
   3 C     6.0000    0    12.011    3.130944    8.968835   -0.002266
   4 C     6.0000    0    12.011    0.495107    8.968687   -0.003171
   5 C     6.0000    0    12.011   -0.823168    6.685509   -0.001289
   6 H     1.0000    0     1.008   -0.544201    2.603147    0.000850
   7 H     1.0000    0     1.008    4.169583    2.602776    0.002485
   8 H     1.0000    0     1.008    6.527413    6.685235    0.001198
   9 H     1.0000    0     1.008    4.170671   10.768124   -0.002377
  10 H     1.0000    0     1.008   -0.544473   10.768238   -0.004972
  11 O     8.0000    0    15.999   -3.525477    6.685959   -0.001731
  12 H     1.0000    0     1.008   -4.131895    6.682545    1.708046



           ************************************************************
           *        Program running with 16 parallel MPI-processes    *
           *              working on a common directory               *
           ************************************************************
------------------------------------------------------------------------------
                   ___                                                        
                  /   \      - P O W E R E D   B Y -                         
                 /     \                                                     
                 |  |  |   _    _      __       _____    __    __             
                 |  |  |  | |  | |    /  \     |  _  \  |  |  /  |          
                  \  \/   | |  | |   /    \    | | | |  |  | /  /          
                 / \  \   | |__| |  /  /\  \   | |_| |  |  |/  /          
                |  |  |   |  __  | /  /__\  \  |    /   |      \           
                |  |  |   | |  | | |   __   |  |    \   |  |\   \          
                \     /   | |  | | |  |  |  |  | |\  \  |  | \   \       
                 \___/    |_|  |_| |__|  |__|  |_| \__\ |__|  \__/        
                                                                              
                      - O R C A' S   B I G   F R I E N D -                    
                                      &                                       
                       - I N T E G R A L  F E E D E R -                       
                                                                              
 v1 FN, 2020, v2 2021                                                         
------------------------------------------------------------------------------


Reading SHARK input file phenol_efield_y_0.032.SHARKINP.tmp ... ok
----------------------
SHARK INTEGRAL PACKAGE
----------------------

Number of atoms                             ...     13
Number of basis functions                   ...    257
Number of shells                            ...    135
Maximum angular momentum                    ...      2
Integral batch strategy                     ... SHARK/LIBINT Hybrid
RI-J (if used) integral strategy            ... SPLIT-RIJ (Revised 2003 algorithm where possible)
Printlevel                                  ...      1
Contraction scheme used                     ... PARTIAL GENERAL contraction
Coulomb Range Separation                    ... NOT USED
Exchange Range Separation                   ... NOT USED
Finite Nucleus Model                        ... NOT USED
Auxiliary Coulomb fitting basis             ... NOT available
Auxiliary J/K fitting basis                 ... NOT available
Auxiliary Correlation fitting basis         ... NOT available
Auxiliary 'external' fitting basis          ... NOT available
Integral threshold                          ...     1.000000e-12
Primitive cut-off                           ...     1.000000e-14
Primitive pair pre-selection threshold      ...     1.000000e-14

Calculating pre-screening integrals         ... done (  0.0 sec) Dimension = 135
Calculating pre-screening integrals (ORCA)  ... done (  0.1 sec) Dimension = 93
Organizing shell pair data                  ... done (  0.0 sec)
Shell pair information
Total number of shell pairs                 ...      9180
Shell pairs after pre-screening             ...      8071
Total number of primitive shell pairs       ...     13080
Primitive shell pairs kept                  ...     10795
          la=0 lb=0:   2934 shell pairs
          la=1 lb=0:   2805 shell pairs
          la=1 lb=1:    559 shell pairs
          la=2 lb=0:   1207 shell pairs
          la=2 lb=1:    461 shell pairs
          la=2 lb=2:    105 shell pairs

Calculating one electron integrals          ... done (  0.0 sec)
Calculating Nuclear repulsion               ... done (  0.0 sec) ENN=    268.852435669254 Eh

SHARK setup successfully completed in   0.3 seconds

Maximum memory used throughout the entire GTOINT-calculation: 17.0 MB

An Electric Field will be added: 0.000e+00 3.200e-02 0.000e+00 au

  ... done adding electric field perturbation



           ************************************************************
           *        Program running with 16 parallel MPI-processes    *
           *              working on a common directory               *
           ************************************************************

Diagonalization of the overlap matrix:
Smallest eigenvalue                        ... 2.604e-06
Time for diagonalization                   ...    0.006 sec
Threshold for overlap eigenvalues          ... 1.000e-08
Number of eigenvalues below threshold      ... 0
Time for construction of square roots      ...    0.011 sec
Total time needed                          ...    0.018 sec

Time for model grid setup =    0.057 sec

Loading Hartree-Fock densities                     ... done
Calculating cut-offs                               ... done
Initializing the effective Hamiltonian             ... done
Setting up the integral package (SHARK)            ... done
Starting the Coulomb interaction                   ... done (   0.0 sec)
Reading the grid                                   ... done
Mapping shells                                     ... done
Starting the XC term evaluation                    ... done (   0.0 sec)
Transforming the Hamiltonian                       ... done (   0.0 sec)
Diagonalizing the Hamiltonian                      ... done (   0.0 sec)
Back transforming the eigenvectors                 ... done (   0.0 sec)
Now organizing SCF variables                       ... done
--------------
SCF ITERATIONS
--------------
ITER       Energy         Delta-E        Max-DP      RMS-DP      [F,P]     Damp
               ***  Starting incremental Fock matrix formation  ***
  0   -305.3075679341   0.000000000000 1.02743947  0.02210916  0.2157175 0.7000
  1   -305.4251840555  -0.117616121369 0.76574305  0.01645109  0.1352324 0.7000
                               ***Turning on DIIS***
  2   -305.4946594863  -0.069475430794 1.76335613  0.03810517  0.0789604 0.0000
  3   -304.9314999688   0.563159517487 0.09865694  0.00244513  0.0413133 0.0000
  4   -305.5777406824  -0.646240713597 0.09851962  0.00150451  0.0067786 0.0000
                      *** Initiating the SOSCF procedure ***
                           *** Shutting down DIIS ***
                      *** Re-Reading the Fockian *** 
                      *** Removing any level shift *** 
ITER      Energy       Delta-E        Grad      Rot      Max-DP    RMS-DP
  5   -305.61270754  -0.0349668572  0.001309  0.001309  0.036672  0.000666
               *** Restarting incremental Fock matrix formation ***
  6   -305.63628440  -0.0235768620  0.000832  0.001779  0.014960  0.000335
  7   -305.63630928  -0.0000248796  0.000347  0.001538  0.013364  0.000316
  8   -305.63631630  -0.0000070220  0.000115  0.000275  0.001721  0.000049
  9   -305.63631707  -0.0000007647  0.000088  0.000304  0.002859  0.000064
 10   -305.63631733  -0.0000002574  0.000024  0.000101  0.001283  0.000028
 11   -305.63631736  -0.0000000333  0.000011  0.000027  0.000292  0.000007
 12   -305.63631736  -0.0000000040  0.000001  0.000012  0.000136  0.000004
 13   -305.63631736  -0.0000000005  0.000001  0.000006  0.000057  0.000001
                  ***Gradient check signals convergence***
              ***Rediagonalizing the Fockian in SOSCF/NRSCF***

               *****************************************************
               *                     SUCCESS                       *
               *           SCF CONVERGED AFTER  14 CYCLES          *
               *****************************************************

Total Energy       :         -305.63631736 Eh           -8316.78701 eV
  Last Energy change         ...   -1.5234e-11  Tolerance :   1.0000e-09
  Last MAX-Density change    ...    3.0810e-05  Tolerance :   1.0000e-08
             **** THE GBW FILE WAS UPDATED (phenol_efield_y_0.032.gbw) ****
             **** DENSITY phenol_efield_y_0.032.scfp WAS UPDATED ****
             **** ENERGY FILE WAS UPDATED (phenol_efield_y_0.032.en.tmp) ****
             **** THE GBW FILE WAS UPDATED (phenol_efield_y_0.032.gbw) ****
             **** DENSITY phenol_efield_y_0.032.scfp WAS UPDATED ****
----------------
ORBITAL ENERGIES
----------------

  NO   OCC          E(Eh)            E(eV) 
   0   2.0000     -20.593712      -560.3834 
   1   2.0000     -11.313795      -307.8640 
   2   2.0000     -11.281645      -306.9892 
   3   2.0000     -11.276895      -306.8599 
   4   2.0000     -11.252272      -306.1899 
   5   2.0000     -11.235828      -305.7424 
   6   2.0000     -11.231223      -305.6171 
   7   2.0000      -1.381326       -37.5878 
   8   2.0000      -1.163171       -31.6515 
   9   2.0000      -1.029097       -28.0031 
  10   2.0000      -1.017718       -27.6935 
  11   2.0000      -0.844179       -22.9713 
  12   2.0000      -0.830784       -22.6068 
  13   2.0000      -0.733664       -19.9640 
  14   2.0000      -0.685830       -18.6624 
  15   2.0000      -0.655547       -17.8384 
  16   2.0000      -0.636369       -17.3165 
  17   2.0000      -0.596192       -16.2232 
  18   2.0000      -0.593345       -16.1457 
  19   2.0000      -0.523700       -14.2506 
  20   2.0000      -0.514972       -14.0131 
  21   2.0000      -0.507411       -13.8074 
  22   2.0000      -0.477221       -12.9858 
  23   2.0000      -0.344968        -9.3871 
  24   2.0000      -0.342242        -9.3129 
  25   0.0000      -0.204714        -5.5705 
  26   0.0000      -0.195173        -5.3109 
  27   0.0000      -0.037580        -1.0226 
  28   0.0000      -0.019330        -0.5260 
  29   0.0000      -0.011671        -0.3176 
  30   0.0000       0.007578         0.2062 
  31   0.0000       0.019248         0.5238 
  32   0.0000       0.031615         0.8603 
  33   0.0000       0.048678         1.3246 
  34   0.0000       0.090905         2.4736 
  35   0.0000       0.105576         2.8729 
  36   0.0000       0.114487         3.1154 
  37   0.0000       0.125407         3.4125 
  38   0.0000       0.137888         3.7521 
  39   0.0000       0.151941         4.1345 
  40   0.0000       0.157353         4.2818 
  41   0.0000       0.165338         4.4991 
  42   0.0000       0.167551         4.5593 
  43   0.0000       0.177876         4.8402 
  44   0.0000       0.204911         5.5759 
  45   0.0000       0.213152         5.8002 
  46   0.0000       0.226631         6.1669 
  47   0.0000       0.249874         6.7994 
  48   0.0000       0.253761         6.9052 
  49   0.0000       0.260698         7.0939 
  50   0.0000       0.267860         7.2888 
  51   0.0000       0.277858         7.5609 
  52   0.0000       0.280090         7.6216 
  53   0.0000       0.284674         7.7464 
  54   0.0000       0.289438         7.8760 
  55   0.0000       0.292720         7.9653 
  56   0.0000       0.311862         8.4862 
  57   0.0000       0.314155         8.5486 
  58   0.0000       0.325904         8.8683 
  59   0.0000       0.339630         9.2418 
  60   0.0000       0.347396         9.4531 
  61   0.0000       0.352791         9.5999 
  62   0.0000       0.365508         9.9460 
  63   0.0000       0.370857        10.0915 
  64   0.0000       0.373182        10.1548 
  65   0.0000       0.386963        10.5298 
  66   0.0000       0.395050        10.7499 
  67   0.0000       0.404850        11.0165 
  68   0.0000       0.413547        11.2532 
  69   0.0000       0.431918        11.7531 
  70   0.0000       0.438997        11.9457 
  71   0.0000       0.455724        12.4009 
  72   0.0000       0.459466        12.5027 
  73   0.0000       0.472014        12.8441 
  74   0.0000       0.485912        13.2223 
  75   0.0000       0.492639        13.4054 
  76   0.0000       0.512929        13.9575 
  77   0.0000       0.517361        14.0781 
  78   0.0000       0.525792        14.3075 
  79   0.0000       0.530970        14.4484 
  80   0.0000       0.544505        14.8167 
  81   0.0000       0.555431        15.1141 
  82   0.0000       0.569606        15.4998 
  83   0.0000       0.574752        15.6398 
  84   0.0000       0.588270        16.0076 
  85   0.0000       0.599822        16.3220 
  86   0.0000       0.603535        16.4230 
  87   0.0000       0.619433        16.8556 
  88   0.0000       0.626428        17.0460 
  89   0.0000       0.636878        17.3303 
  90   0.0000       0.640346        17.4247 
  91   0.0000       0.655942        17.8491 
  92   0.0000       0.666017        18.1232 
  93   0.0000       0.684692        18.6314 
  94   0.0000       0.697037        18.9673 
  95   0.0000       0.701322        19.0839 
  96   0.0000       0.708632        19.2829 
  97   0.0000       0.713332        19.4108 
  98   0.0000       0.752262        20.4701 
  99   0.0000       0.756670        20.5900 
 100   0.0000       0.766541        20.8586 
 101   0.0000       0.782057        21.2809 
 102   0.0000       0.785645        21.3785 
 103   0.0000       0.801152        21.8005 
 104   0.0000       0.822945        22.3935 
 105   0.0000       0.834859        22.7177 
 106   0.0000       0.853459        23.2238 
 107   0.0000       0.865160        23.5422 
 108   0.0000       0.872309        23.7367 
 109   0.0000       0.878727        23.9114 
 110   0.0000       0.897905        24.4332 
 111   0.0000       0.903260        24.5790 
 112   0.0000       0.920705        25.0537 
 113   0.0000       0.927640        25.2424 
 114   0.0000       0.937422        25.5085 
 115   0.0000       0.949328        25.8325 
 116   0.0000       0.952186        25.9103 
 117   0.0000       0.977744        26.6058 
 118   0.0000       0.981626        26.7114 
 119   0.0000       0.992388        27.0043 
 120   0.0000       1.004326        27.3291 
 121   0.0000       1.024103        27.8672 
 122   0.0000       1.042120        28.3575 
 123   0.0000       1.043431        28.3932 
 124   0.0000       1.084816        29.5193 
 125   0.0000       1.087706        29.5980 
 126   0.0000       1.141920        31.0732 
 127   0.0000       1.166555        31.7436 
 128   0.0000       1.171866        31.8881 
 129   0.0000       1.190245        32.3882 
 130   0.0000       1.245127        33.8816 
 131   0.0000       1.292376        35.1673 
 132   0.0000       1.352733        36.8097 
 133   0.0000       1.368758        37.2458 
 134   0.0000       1.411350        38.4048 
 135   0.0000       1.434414        39.0324 
 136   0.0000       1.454779        39.5866 
 137   0.0000       1.469817        39.9958 
 138   0.0000       1.475988        40.1637 
 139   0.0000       1.512826        41.1661 
 140   0.0000       1.519084        41.3364 
 141   0.0000       1.546639        42.0862 
 142   0.0000       1.558996        42.4224 
 143   0.0000       1.568427        42.6791 
 144   0.0000       1.597981        43.4833 
 145   0.0000       1.612696        43.8837 
 146   0.0000       1.628162        44.3046 
 147   0.0000       1.638672        44.5905 
 148   0.0000       1.660753        45.1914 
 149   0.0000       1.676284        45.6140 
 150   0.0000       1.688912        45.9576 
 151   0.0000       1.694532        46.1106 
 152   0.0000       1.703452        46.3533 
 153   0.0000       1.711441        46.5707 
 154   0.0000       1.730733        47.0956 
 155   0.0000       1.759979        47.8915 
 156   0.0000       1.790429        48.7201 
 157   0.0000       1.797834        48.9215 
 158   0.0000       1.860747        50.6335 
 159   0.0000       1.868868        50.8545 
 160   0.0000       1.873256        50.9739 
 161   0.0000       1.883126        51.2425 
 162   0.0000       1.899357        51.6841 
 163   0.0000       1.925433        52.3937 
 164   0.0000       1.941693        52.8361 
 165   0.0000       1.946757        52.9739 
 166   0.0000       1.958670        53.2981 
 167   0.0000       1.980827        53.9010 
 168   0.0000       1.992282        54.2128 
 169   0.0000       2.041851        55.5616 
 170   0.0000       2.051946        55.8363 
 171   0.0000       2.063659        56.1550 
 172   0.0000       2.122008        57.7428 
 173   0.0000       2.134023        58.0697 
 174   0.0000       2.160836        58.7993 
 175   0.0000       2.174071        59.1595 
 176   0.0000       2.185163        59.4613 
 177   0.0000       2.204495        59.9874 
 178   0.0000       2.211557        60.1795 
 179   0.0000       2.240324        60.9623 
 180   0.0000       2.252735        61.3000 
 181   0.0000       2.286516        62.2193 
 182   0.0000       2.319843        63.1261 
 183   0.0000       2.352022        64.0018 
 184   0.0000       2.362535        64.2879 
 185   0.0000       2.376332        64.6633 
 186   0.0000       2.417898        65.7943 
 187   0.0000       2.449593        66.6568 
 188   0.0000       2.465267        67.0833 
 189   0.0000       2.618064        71.2411 
 190   0.0000       2.621292        71.3290 
 191   0.0000       2.665512        72.5323 
 192   0.0000       2.697918        73.4141 
 193   0.0000       2.722968        74.0957 
 194   0.0000       2.763937        75.2105 
 195   0.0000       2.790031        75.9206 
 196   0.0000       2.844976        77.4157 
 197   0.0000       2.895650        78.7946 
 198   0.0000       2.940725        80.0212 
 199   0.0000       3.003976        81.7423 
 200   0.0000       3.045681        82.8772 
 201   0.0000       3.081693        83.8571 
 202   0.0000       3.122839        84.9768 
 203   0.0000       3.196898        86.9920 
 204   0.0000       3.276263        89.1516 
 205   0.0000       3.362415        91.4960 
 206   0.0000       3.507397        95.4411 
 207   0.0000       3.546710        96.5109 
 208   0.0000       3.737882       101.7129 
 209   0.0000       3.768021       102.5331 
 210   0.0000       3.829569       104.2079 
 211   0.0000       3.919036       106.6424 
 212   0.0000       3.996198       108.7421 
 213   0.0000       4.262507       115.9887 
 214   0.0000       4.713830       128.2698 
Total SCF time: 0 days 0 hours 0 min 17 sec 

Maximum memory used throughout the entire SCF-calculation: 231.6 MB

-------------------------   --------------------
FINAL SINGLE POINT ENERGY      -305.636317363026
-------------------------   --------------------


                            ***************************************
                            *     ORCA property calculations      *
                            ***************************************

                                    ---------------------
                                    Active property flags
                                    ---------------------
   (+) Dipole Moment
   (+) Polarizability


------------------------------------------------------------------------------
                       ORCA ELECTRIC PROPERTIES CALCULATION
------------------------------------------------------------------------------

Dipole Moment Calculation                       ... on
Quadrupole Moment Calculation                   ... off
Polarizability Calculation                      ... Analytic (CP-SCF)
GBWName                                         ... phenol_efield_y_0.032.gbw
Electron density                                ... phenol_efield_y_0.032.scfp
The origin for moment calculation is the CENTER OF MASS  = ( 0.892295,  6.685629  0.017111)

-------------
DIPOLE MOMENT
-------------
                                X             Y             Z
Electronic contribution:     -1.75401       2.68072      -0.22632
Nuclear contribution   :      2.09690      -0.00184       0.79546
                        -----------------------------------------
Total Dipole Moment    :      0.34289       2.67888       0.56914
                        -----------------------------------------
Magnitude (a.u.)       :      2.76005
Magnitude (Debye)      :      7.01549



--------------------
Rotational spectrum 
--------------------
 
Rotational constants in cm-1:     0.187876     0.084795     0.058746 
Rotational constants in MHz :  5632.368735  2542.097443  1761.161239 

 Dipole components along the rotational axes: 
x,y,z [a.u.] :     0.335881    -2.678526     0.574942 
x,y,z [Debye]:     0.853743    -6.808272     1.461386 

 
Transforming and storing MO dipole integrals   ... done

                ... starting polarizability calculation

The origin for moment calculation is the CENTER OF MASS  = ( 0.892295,  6.685629  0.017111)
Opening the Dipole integral file               ... (phenol_efield_y_0.032.dmo.tmp) done
Reading Dipole-MO integrals                    ... done
Solving CP-SCF equations                       ... 

           ************************************************************
           *        Program running with 16 parallel MPI-processes    *
           *              working on a common directory               *
           ************************************************************

------------------------------------------------------------------------------
                           ORCA CP-SCF CALCULATION
------------------------------------------------------------------------------

Input orbitals are from        ... phenol_efield_y_0.032.gbw
Input Perturbation             ... phenol_efield_y_0.032.cpv.tmp
Wavefunction output            ... phenol_efield_y_0.032.cpu.tmp
Perturbation mode              ... Real perturbation (singlet)
Solver                         ... POPLE
Max. number of iterations      ... 64
Convergence tolerance          ... 3.000e-05
Integral handling              ... Direct
Number of perturbations        ... 3
Number of operators            ... 1
Orbital ranges used for CP-SCF:
 Operator 0:  Orbitals   0... 24  to  25...214
Variables per perturbation     ... 4750
Memory available               ... 1992.1 MB
Memory needed per perturbation ...   1.4 MB
Perturbations treated per batch... 3
Number of batches              ... 1
     CP-SCF ITERATION   0:   2.1114e+00 (   2.2 sec   0/  3 done)
     CP-SCF ITERATION   1:   6.4210e-01 (   2.2 sec   0/  3 done)
     CP-SCF ITERATION   2:   4.0624e-01 (   2.2 sec   0/  3 done)
     CP-SCF ITERATION   3:   9.8623e-02 (   2.2 sec   0/  3 done)
     CP-SCF ITERATION   4:   3.0905e-02 (   2.3 sec   0/  3 done)
     CP-SCF ITERATION   5:   1.4336e-02 (   2.2 sec   0/  3 done)
     CP-SCF ITERATION   6:   5.5441e-03 (   2.3 sec   0/  3 done)
     CP-SCF ITERATION   7:   2.5757e-03 (   2.2 sec   0/  3 done)
     CP-SCF ITERATION   8:   6.9208e-04 (   2.3 sec   0/  3 done)
     CP-SCF ITERATION   9:   3.1426e-04 (   2.3 sec   0/  3 done)
     CP-SCF ITERATION  10:   1.2140e-04 (   2.3 sec   0/  3 done)
     CP-SCF ITERATION  11:   5.5065e-05 (   2.3 sec   0/  3 done)
     CP-SCF ITERATION  12:   2.3459e-05 (   2.3 sec   3/  3 done)
                    *** THE CP-SCF HAS CONVERGED ***
done
Reading CP-SCF coefficients                    ... done
Doing the polarizability tensor                ... done
Cleaning up                                    ... done

-------------------------
THE POLARIZABILITY TENSOR
-------------------------

The raw cartesian tensor (atomic units):
   90.35246      0.23367     -1.49672  
    0.23367     88.13698     -0.32413  
   -1.49672     -0.32413     52.67643  
diagonalized tensor: 
   52.61428     88.11337     90.43822  

    0.03957     -0.10682     -0.99349  
    0.00886      0.99427     -0.10655  
    0.99918     -0.00458      0.04029  

Isotropic polarizability :  77.05529


Timings for individual modules:

Sum of individual times         ...       54.528 sec (=   0.909 min)
GTO integral calculation        ...        2.921 sec (=   0.049 min)   5.4 %
SCF iterations                  ...       19.602 sec (=   0.327 min)  35.9 %
Solution of CP-SCF eqns.        ...       32.005 sec (=   0.533 min)  58.7 %
                             ****ORCA TERMINATED NORMALLY****
TOTAL RUN TIME: 0 days 0 hours 0 minutes 57 seconds 694 msec
