
                                 *****************
                                 * O   R   C   A *
                                 *****************

                                            #,                                       
                                            ###                                      
                                            ####                                     
                                            #####                                    
                                            ######                                   
                                           ########,                                 
                                     ,,################,,,,,                         
                               ,,#################################,,                 
                          ,,##########################################,,             
                       ,#########################################, ''#####,          
                    ,#############################################,,   '####,        
                  ,##################################################,,,,####,       
                ,###########''''           ''''###############################       
              ,#####''   ,,,,##########,,,,          '''####'''          '####       
            ,##' ,,,,###########################,,,                        '##       
           ' ,,###''''                  '''############,,,                           
         ,,##''                                '''############,,,,        ,,,,,,###''
      ,#''                                            '''#######################'''  
     '                                                          ''''####''''         
             ,#######,   #######,   ,#######,      ##                                
            ,#'     '#,  ##    ##  ,#'     '#,    #''#        ######   ,####,        
            ##       ##  ##   ,#'  ##            #'  '#       #        #'  '#        
            ##       ##  #######   ##           ,######,      #####,   #    #        
            '#,     ,#'  ##    ##  '#,     ,#' ,#      #,         ##   #,  ,#        
             '#######'   ##     ##  '#######'  #'      '#     #####' # '####'        



                  #######################################################
                  #                        -***-                        #
                  #          Department of theory and spectroscopy      #
                  #    Directorship and core code : Frank Neese         #
                  #        Max Planck Institute fuer Kohlenforschung    #
                  #                Kaiser Wilhelm Platz 1               #
                  #                 D-45470 Muelheim/Ruhr               #
                  #                      Germany                        #
                  #                                                     #
                  #                  All rights reserved                #
                  #                        -***-                        #
                  #######################################################


                         Program Version 5.0.4 -  RELEASE  -


 With contributions from (in alphabetic order):
   Daniel Aravena         : Magnetic Suceptibility
   Michael Atanasov       : Ab Initio Ligand Field Theory (pilot matlab implementation)
   Alexander A. Auer      : GIAO ZORA, VPT2 properties, NMR spectrum
   Ute Becker             : Parallelization
   Giovanni Bistoni       : ED, misc. LED, open-shell LED, HFLD
   Martin Brehm           : Molecular dynamics
   Dmytro Bykov           : SCF Hessian
   Vijay G. Chilkuri      : MRCI spin determinant printing, contributions to CSF-ICE
   Dipayan Datta          : RHF DLPNO-CCSD density
   Achintya Kumar Dutta   : EOM-CC, STEOM-CC
   Dmitry Ganyushin       : Spin-Orbit,Spin-Spin,Magnetic field MRCI
   Miquel Garcia          : C-PCM and meta-GGA Hessian, CC/C-PCM, Gaussian charge scheme
   Yang Guo               : DLPNO-NEVPT2, F12-NEVPT2, CIM, IAO-localization
   Andreas Hansen         : Spin unrestricted coupled pair/coupled cluster methods
   Benjamin Helmich-Paris : MC-RPA, TRAH-SCF, COSX integrals
   Lee Huntington         : MR-EOM, pCC
   Robert Izsak           : Overlap fitted RIJCOSX, COSX-SCS-MP3, EOM
   Marcus Kettner         : VPT2
   Christian Kollmar      : KDIIS, OOCD, Brueckner-CCSD(T), CCSD density, CASPT2, CASPT2-K
   Simone Kossmann        : Meta GGA functionals, TD-DFT gradient, OOMP2, MP2 Hessian
   Martin Krupicka        : Initial AUTO-CI
   Lucas Lang             : DCDCAS
   Marvin Lechner         : AUTO-CI (C++ implementation), FIC-MRCC
   Dagmar Lenk            : GEPOL surface, SMD
   Dimitrios Liakos       : Extrapolation schemes; Compound Job, initial MDCI parallelization
   Dimitrios Manganas     : Further ROCIS development; embedding schemes
   Dimitrios Pantazis     : SARC Basis sets
   Anastasios Papadopoulos: AUTO-CI, single reference methods and gradients
   Taras Petrenko         : DFT Hessian,TD-DFT gradient, ASA, ECA, R-Raman, ABS, FL, XAS/XES, NRVS
   Peter Pinski           : DLPNO-MP2, DLPNO-MP2 Gradient
   Christoph Reimann      : Effective Core Potentials
   Marius Retegan         : Local ZFS, SOC
   Christoph Riplinger    : Optimizer, TS searches, QM/MM, DLPNO-CCSD(T), (RO)-DLPNO pert. Triples
   Tobias Risthaus        : Range-separated hybrids, TD-DFT gradient, RPA, STAB
   Michael Roemelt        : Original ROCIS implementation
   Masaaki Saitow         : Open-shell DLPNO-CCSD energy and density
   Barbara Sandhoefer     : DKH picture change effects
   Avijit Sen             : IP-ROCIS
   Kantharuban Sivalingam : CASSCF convergence, NEVPT2, FIC-MRCI
   Bernardo de Souza      : ESD, SOC TD-DFT
   Georgi Stoychev        : AutoAux, RI-MP2 NMR, DLPNO-MP2 response
   Willem Van den Heuvel  : Paramagnetic NMR
   Boris Wezisla          : Elementary symmetry handling
   Frank Wennmohs         : Technical directorship


 We gratefully acknowledge several colleagues who have allowed us to
 interface, adapt or use parts of their codes:
   Stefan Grimme, W. Hujo, H. Kruse, P. Pracht,  : VdW corrections, initial TS optimization,
                  C. Bannwarth, S. Ehlert          DFT functionals, gCP, sTDA/sTD-DF
   Ed Valeev, F. Pavosevic, A. Kumar             : LibInt (2-el integral package), F12 methods
   Garnet Chan, S. Sharma, J. Yang, R. Olivares  : DMRG
   Ulf Ekstrom                                   : XCFun DFT Library
   Mihaly Kallay                                 : mrcc  (arbitrary order and MRCC methods)
   Jiri Pittner, Ondrej Demel                    : Mk-CCSD
   Frank Weinhold                                : gennbo (NPA and NBO analysis)
   Christopher J. Cramer and Donald G. Truhlar   : smd solvation model
   Lars Goerigk                                  : TD-DFT with DH, B97 family of functionals
   V. Asgeirsson, H. Jonsson                     : NEB implementation
   FAccTs GmbH                                   : IRC, NEB, NEB-TS, DLPNO-Multilevel, CI-OPT
                                                   MM, QMMM, 2- and 3-layer-ONIOM, Crystal-QMMM,
                                                   LR-CPCM, SF, NACMEs, symmetry and pop. for TD-DFT,
                                                   nearIR, NL-DFT gradient (VV10), updates on ESD,
                                                   ML-optimized integration grids
   S Lehtola, MJT Oliveira, MAL Marques          : LibXC Library
   Liviu Ungur et al                             : ANISO software


 Your calculation uses the libint2 library for the computation of 2-el integrals
 For citations please refer to: http://libint.valeyev.net

 Your ORCA version has been built with support for libXC version: 5.1.0
 For citations please refer to: https://tddft.org/programs/libxc/

 This ORCA versions uses:
   CBLAS   interface :  Fast vector & matrix operations
   LAPACKE interface :  Fast linear algebra routines
   SCALAPACK package :  Parallel linear algebra routines
   Shared memory     :  Shared parallel matrices
   BLAS/LAPACK       :  OpenBLAS 0.3.15  USE64BITINT DYNAMIC_ARCH NO_AFFINITY SkylakeX SINGLE_THREADED
        Core in use  :  SkylakeX
   Copyright (c) 2011-2014, The OpenBLAS Project


================================================================================

----- Orbital basis set information -----
Your calculation utilizes the basis: aug-cc-pVDZ 
    H, B-Ne : Obtained from the ccRepo (grant-hill.group.shef.ac.uk/ccrepo) Feb. 2017
              R. A. Kendall, T. H. Dunning, Jr., R. J. Harrison, J. Chem. Phys. 96, 6796 (1992)
         He : Obtained from the ccRepo (grant-hill.group.shef.ac.uk/ccrepo) Feb. 2017
              D. E. Woon, T. H. Dunning, Jr., J. Chem. Phys. 100, 2975 (1994)
  Li-Be, Na : Obtained from the ccRepo (grant-hill.group.shef.ac.uk/ccrepo) Feb. 2017
              B. P. Prascher, D. E. Woon, K. A. Peterson, T. H. Dunning, Jr., A. K. Wilson, Theor. Chem. Acc. 128, 69 (2011)
         Mg : Obtained from the Peterson Research Group Website (tyr0.chem.wsu.edu/~kipeters) Feb. 2017
              B. P. Prascher, D. E. Woon, K. A. Peterson, T. H. Dunning, Jr., A. K. Wilson, Theor. Chem. Acc. 128, 69 (2011)
      Al-Ar : Obtained from the ccRepo (grant-hill.group.shef.ac.uk/ccrepo) Feb. 2017
              D. E. Woon, T. H. Dunning, Jr., J. Chem. Phys. 98, 1358 (1993)
      Sc-Zn : Obtained from the ccRepo (grant-hill.group.shef.ac.uk/ccrepo) Feb. 2017
              N. B. Balabanov, K. A. Peterson, J. Chem. Phys. 123, 064107 (2005)
              N. B. Balabanov, K. A. Peterson, J. Chem. Phys. 125, 074110 (2006)
      Ga-Kr : Obtained from the ccRepo (grant-hill.group.shef.ac.uk/ccrepo) Feb. 2017
              A. K. Wilson, D. E. Woon, K. A. Peterson, T. H. Dunning, Jr., J. Chem. Phys. 110, 7667 (1999)

================================================================================
                                        WARNINGS
                       Please study these warnings very carefully!
================================================================================


INFO   : the flag for use of the SHARK integral package has been found!

================================================================================
                                       INPUT FILE
================================================================================
NAME = phenol_efield_z_0.016.inp
|  1> ! hf aug-cc-pVDZ
|  2> ! MiniPrint VeryTightSCF
|  3> %pal
|  4>  nprocs 16
|  5> end
|  6> %MaxCore 2000
|  7> %scf
|  8>  maxiter=200
|  9>  efield 0.0 , 0.0 , 0.016
| 10> end
| 11> %elprop
| 12>   polar 1
| 13> end
| 14> * xyz 0 1
| 15>  C                  0.26178012    2.32984290    0.00000000
| 16>  C                  1.65694012    2.32984290    0.00000000
| 17>  C                  2.35447812    3.53759390    0.00000000
| 18>  C                  1.65682412    4.74610290   -0.00119900
| 19>  C                  0.26199912    4.74602490   -0.00167800
| 20>  C                 -0.43560188    3.53781890   -0.00068200
| 21>  H                 -0.28797888    1.37752590    0.00045000
| 22>  H                  2.20644812    1.37732990    0.00131500
| 23>  H                  3.45415812    3.53767390    0.00063400
| 24>  H                  2.20702412    5.69824590   -0.00125800
| 25>  H                 -0.28812288    5.69830590   -0.00263100
| 26>  O                 -1.86560184    3.53805688   -0.00091608
| 27>  H                 -2.18650479    3.53625036    0.90385905
| 28> *
| 29> 
| 30>                          ****END OF INPUT****
================================================================================

                       ****************************
                       * Single Point Calculation *
                       ****************************

---------------------------------
CARTESIAN COORDINATES (ANGSTROEM)
---------------------------------
  C      0.261780    2.329843    0.000000
  C      1.656940    2.329843    0.000000
  C      2.354478    3.537594    0.000000
  C      1.656824    4.746103   -0.001199
  C      0.261999    4.746025   -0.001678
  C     -0.435602    3.537819   -0.000682
  H     -0.287979    1.377526    0.000450
  H      2.206448    1.377330    0.001315
  H      3.454158    3.537674    0.000634
  H      2.207024    5.698246   -0.001258
  H     -0.288123    5.698306   -0.002631
  O     -1.865602    3.538057   -0.000916
  H     -2.186505    3.536250    0.903859

----------------------------
CARTESIAN COORDINATES (A.U.)
----------------------------
  NO LB      ZA    FRAG     MASS         X           Y           Z
   0 C     6.0000    0    12.011    0.494693    4.402765    0.000000
   1 C     6.0000    0    12.011    3.131163    4.402765    0.000000
   2 C     6.0000    0    12.011    4.449319    6.685084    0.000000
   3 C     6.0000    0    12.011    3.130944    8.968835   -0.002266
   4 C     6.0000    0    12.011    0.495107    8.968687   -0.003171
   5 C     6.0000    0    12.011   -0.823168    6.685509   -0.001289
   6 H     1.0000    0     1.008   -0.544201    2.603147    0.000850
   7 H     1.0000    0     1.008    4.169583    2.602776    0.002485
   8 H     1.0000    0     1.008    6.527413    6.685235    0.001198
   9 H     1.0000    0     1.008    4.170671   10.768124   -0.002377
  10 H     1.0000    0     1.008   -0.544473   10.768238   -0.004972
  11 O     8.0000    0    15.999   -3.525477    6.685959   -0.001731
  12 H     1.0000    0     1.008   -4.131895    6.682545    1.708046



           ************************************************************
           *        Program running with 16 parallel MPI-processes    *
           *              working on a common directory               *
           ************************************************************
------------------------------------------------------------------------------
                   ___                                                        
                  /   \      - P O W E R E D   B Y -                         
                 /     \                                                     
                 |  |  |   _    _      __       _____    __    __             
                 |  |  |  | |  | |    /  \     |  _  \  |  |  /  |          
                  \  \/   | |  | |   /    \    | | | |  |  | /  /          
                 / \  \   | |__| |  /  /\  \   | |_| |  |  |/  /          
                |  |  |   |  __  | /  /__\  \  |    /   |      \           
                |  |  |   | |  | | |   __   |  |    \   |  |\   \          
                \     /   | |  | | |  |  |  |  | |\  \  |  | \   \       
                 \___/    |_|  |_| |__|  |__|  |_| \__\ |__|  \__/        
                                                                              
                      - O R C A' S   B I G   F R I E N D -                    
                                      &                                       
                       - I N T E G R A L  F E E D E R -                       
                                                                              
 v1 FN, 2020, v2 2021                                                         
------------------------------------------------------------------------------


Reading SHARK input file phenol_efield_z_0.016.SHARKINP.tmp ... ok
----------------------
SHARK INTEGRAL PACKAGE
----------------------

Number of atoms                             ...     13
Number of basis functions                   ...    257
Number of shells                            ...    135
Maximum angular momentum                    ...      2
Integral batch strategy                     ... SHARK/LIBINT Hybrid
RI-J (if used) integral strategy            ... SPLIT-RIJ (Revised 2003 algorithm where possible)
Printlevel                                  ...      1
Contraction scheme used                     ... PARTIAL GENERAL contraction
Coulomb Range Separation                    ... NOT USED
Exchange Range Separation                   ... NOT USED
Finite Nucleus Model                        ... NOT USED
Auxiliary Coulomb fitting basis             ... NOT available
Auxiliary J/K fitting basis                 ... NOT available
Auxiliary Correlation fitting basis         ... NOT available
Auxiliary 'external' fitting basis          ... NOT available
Integral threshold                          ...     1.000000e-12
Primitive cut-off                           ...     1.000000e-14
Primitive pair pre-selection threshold      ...     1.000000e-14

Calculating pre-screening integrals         ... done (  0.0 sec) Dimension = 135
Calculating pre-screening integrals (ORCA)  ... done (  0.1 sec) Dimension = 93
Organizing shell pair data                  ... done (  0.0 sec)
Shell pair information
Total number of shell pairs                 ...      9180
Shell pairs after pre-screening             ...      8071
Total number of primitive shell pairs       ...     13080
Primitive shell pairs kept                  ...     10795
          la=0 lb=0:   2934 shell pairs
          la=1 lb=0:   2805 shell pairs
          la=1 lb=1:    559 shell pairs
          la=2 lb=0:   1207 shell pairs
          la=2 lb=1:    461 shell pairs
          la=2 lb=2:    105 shell pairs

Calculating one electron integrals          ... done (  0.0 sec)
Calculating Nuclear repulsion               ... done (  0.0 sec) ENN=    268.852435669254 Eh

SHARK setup successfully completed in   0.3 seconds

Maximum memory used throughout the entire GTOINT-calculation: 17.0 MB

An Electric Field will be added: 0.000e+00 0.000e+00 1.600e-02 au

  ... done adding electric field perturbation



           ************************************************************
           *        Program running with 16 parallel MPI-processes    *
           *              working on a common directory               *
           ************************************************************

Diagonalization of the overlap matrix:
Smallest eigenvalue                        ... 2.604e-06
Time for diagonalization                   ...    0.006 sec
Threshold for overlap eigenvalues          ... 1.000e-08
Number of eigenvalues below threshold      ... 0
Time for construction of square roots      ...    0.012 sec
Total time needed                          ...    0.018 sec

Time for model grid setup =    0.056 sec

Loading Hartree-Fock densities                     ... done
Calculating cut-offs                               ... done
Initializing the effective Hamiltonian             ... done
Setting up the integral package (SHARK)            ... done
Starting the Coulomb interaction                   ... done (   0.0 sec)
Reading the grid                                   ... done
Mapping shells                                     ... done
Starting the XC term evaluation                    ... done (   0.0 sec)
Transforming the Hamiltonian                       ... done (   0.0 sec)
Diagonalizing the Hamiltonian                      ... done (   0.0 sec)
Back transforming the eigenvectors                 ... done (   0.0 sec)
Now organizing SCF variables                       ... done
--------------
SCF ITERATIONS
--------------
ITER       Energy         Delta-E        Max-DP      RMS-DP      [F,P]     Damp
               ***  Starting incremental Fock matrix formation  ***
  0   -305.3482795057   0.000000000000 0.92687510  0.02252545  0.2289190 0.7000
  1   -305.4384565057  -0.090176999960 0.68356016  0.01682866  0.1427330 0.7000
                               ***Turning on DIIS***
  2   -305.4939138929  -0.055457387211 1.58103658  0.03885809  0.0837934 0.0000
  3   -305.0204406518   0.473473241044 0.03615843  0.00154549  0.0413023 0.0000
  4   -305.5609843539  -0.540543702090 0.05939310  0.00108284  0.0050993 0.0000
  5   -305.5944446648  -0.033460310836 0.01801073  0.00037148  0.0035415 0.0000
                      *** Initiating the SOSCF procedure ***
                           *** Shutting down DIIS ***
                      *** Re-Reading the Fockian *** 
                      *** Removing any level shift *** 
ITER      Energy       Delta-E        Grad      Rot      Max-DP    RMS-DP
  6   -305.60602465  -0.0115799898  0.000422  0.000422  0.002960  0.000069
               *** Restarting incremental Fock matrix formation ***
  7   -305.60927112  -0.0032464618  0.000197  0.000438  0.001512  0.000045
  8   -305.60927294  -0.0000018250  0.000101  0.000471  0.002366  0.000048
  9   -305.60927355  -0.0000006121  0.000033  0.000091  0.000419  0.000010
 10   -305.60927363  -0.0000000757  0.000014  0.000055  0.000237  0.000006
 11   -305.60927365  -0.0000000230  0.000006  0.000038  0.000080  0.000003
 12   -305.60927366  -0.0000000040  0.000001  0.000004  0.000020  0.000001
 13   -305.60927366  -0.0000000002  0.000001  0.000001  0.000017  0.000000
                  ***Gradient check signals convergence***
              ***Rediagonalizing the Fockian in SOSCF/NRSCF***

               *****************************************************
               *                     SUCCESS                       *
               *           SCF CONVERGED AFTER  14 CYCLES          *
               *****************************************************

Total Energy       :         -305.60927366 Eh           -8316.05112 eV
  Last Energy change         ...   -1.2506e-12  Tolerance :   1.0000e-09
  Last MAX-Density change    ...    3.0445e-06  Tolerance :   1.0000e-08
             **** THE GBW FILE WAS UPDATED (phenol_efield_z_0.016.gbw) ****
             **** DENSITY phenol_efield_z_0.016.scfp WAS UPDATED ****
             **** ENERGY FILE WAS UPDATED (phenol_efield_z_0.016.en.tmp) ****
             **** THE GBW FILE WAS UPDATED (phenol_efield_z_0.016.gbw) ****
             **** DENSITY phenol_efield_z_0.016.scfp WAS UPDATED ****
----------------
ORBITAL ENERGIES
----------------

  NO   OCC          E(Eh)            E(eV) 
   0   2.0000     -20.585827      -560.1688 
   1   2.0000     -11.308395      -307.7171 
   2   2.0000     -11.253044      -306.2109 
   3   2.0000     -11.252924      -306.2076 
   4   2.0000     -11.248061      -306.0753 
   5   2.0000     -11.248019      -306.0741 
   6   2.0000     -11.246867      -306.0428 
   7   2.0000      -1.374595       -37.4046 
   8   2.0000      -1.154831       -31.4246 
   9   2.0000      -1.024653       -27.8822 
  10   2.0000      -1.010962       -27.5097 
  11   2.0000      -0.837683       -22.7945 
  12   2.0000      -0.825190       -22.4546 
  13   2.0000      -0.724970       -19.7274 
  14   2.0000      -0.677511       -18.4360 
  15   2.0000      -0.648415       -17.6443 
  16   2.0000      -0.629308       -17.1243 
  17   2.0000      -0.592050       -16.1105 
  18   2.0000      -0.589570       -16.0430 
  19   2.0000      -0.522218       -14.2103 
  20   2.0000      -0.516930       -14.0664 
  21   2.0000      -0.499601       -13.5948 
  22   2.0000      -0.476442       -12.9646 
  23   2.0000      -0.344790        -9.3822 
  24   2.0000      -0.335830        -9.1384 
  25   0.0000       0.005720         0.1557 
  26   0.0000       0.024581         0.6689 
  27   0.0000       0.027086         0.7371 
  28   0.0000       0.045703         1.2436 
  29   0.0000       0.048149         1.3102 
  30   0.0000       0.086826         2.3627 
  31   0.0000       0.096230         2.6185 
  32   0.0000       0.100543         2.7359 
  33   0.0000       0.102370         2.7856 
  34   0.0000       0.102987         2.8024 
  35   0.0000       0.115206         3.1349 
  36   0.0000       0.137849         3.7511 
  37   0.0000       0.144603         3.9348 
  38   0.0000       0.154690         4.2093 
  39   0.0000       0.154810         4.2126 
  40   0.0000       0.158400         4.3103 
  41   0.0000       0.159271         4.3340 
  42   0.0000       0.159419         4.3380 
  43   0.0000       0.180575         4.9137 
  44   0.0000       0.183911         5.0045 
  45   0.0000       0.186785         5.0827 
  46   0.0000       0.194879         5.3029 
  47   0.0000       0.196546         5.3483 
  48   0.0000       0.196677         5.3519 
  49   0.0000       0.197332         5.3697 
  50   0.0000       0.208261         5.6671 
  51   0.0000       0.248353         6.7580 
  52   0.0000       0.262554         7.1445 
  53   0.0000       0.263926         7.1818 
  54   0.0000       0.287675         7.8280 
  55   0.0000       0.294845         8.0231 
  56   0.0000       0.306437         8.3386 
  57   0.0000       0.309839         8.4312 
  58   0.0000       0.322661         8.7800 
  59   0.0000       0.346192         9.4204 
  60   0.0000       0.349103         9.4996 
  61   0.0000       0.351576         9.5669 
  62   0.0000       0.355857         9.6834 
  63   0.0000       0.370376        10.0785 
  64   0.0000       0.372640        10.1400 
  65   0.0000       0.376141        10.2353 
  66   0.0000       0.376534        10.2460 
  67   0.0000       0.401383        10.9222 
  68   0.0000       0.406673        11.0661 
  69   0.0000       0.412104        11.2139 
  70   0.0000       0.422989        11.5101 
  71   0.0000       0.433573        11.7981 
  72   0.0000       0.444146        12.0858 
  73   0.0000       0.449593        12.2340 
  74   0.0000       0.469176        12.7669 
  75   0.0000       0.486001        13.2248 
  76   0.0000       0.498139        13.5551 
  77   0.0000       0.501110        13.6359 
  78   0.0000       0.516781        14.0623 
  79   0.0000       0.532093        14.4790 
  80   0.0000       0.533930        14.5290 
  81   0.0000       0.557093        15.1593 
  82   0.0000       0.578096        15.7308 
  83   0.0000       0.581110        15.8128 
  84   0.0000       0.587997        16.0002 
  85   0.0000       0.598010        16.2727 
  86   0.0000       0.606951        16.5160 
  87   0.0000       0.617697        16.8084 
  88   0.0000       0.635956        17.3052 
  89   0.0000       0.648191        17.6382 
  90   0.0000       0.654940        17.8218 
  91   0.0000       0.668801        18.1990 
  92   0.0000       0.675649        18.3853 
  93   0.0000       0.683511        18.5993 
  94   0.0000       0.689149        18.7527 
  95   0.0000       0.690706        18.7951 
  96   0.0000       0.704169        19.1614 
  97   0.0000       0.724027        19.7018 
  98   0.0000       0.738434        20.0938 
  99   0.0000       0.752068        20.4648 
 100   0.0000       0.752526        20.4773 
 101   0.0000       0.762753        20.7556 
 102   0.0000       0.765109        20.8197 
 103   0.0000       0.770296        20.9608 
 104   0.0000       0.804014        21.8783 
 105   0.0000       0.840987        22.8844 
 106   0.0000       0.857672        23.3384 
 107   0.0000       0.867227        23.5984 
 108   0.0000       0.869322        23.6555 
 109   0.0000       0.873723        23.7752 
 110   0.0000       0.913503        24.8577 
 111   0.0000       0.916571        24.9412 
 112   0.0000       0.919587        25.0232 
 113   0.0000       0.929817        25.3016 
 114   0.0000       0.937090        25.4995 
 115   0.0000       0.937919        25.5221 
 116   0.0000       0.945370        25.7248 
 117   0.0000       0.959434        26.1075 
 118   0.0000       0.977640        26.6029 
 119   0.0000       0.980247        26.6739 
 120   0.0000       0.997217        27.1356 
 121   0.0000       1.034110        28.1396 
 122   0.0000       1.040853        28.3230 
 123   0.0000       1.047812        28.5124 
 124   0.0000       1.068154        29.0659 
 125   0.0000       1.088787        29.6274 
 126   0.0000       1.146145        31.1882 
 127   0.0000       1.160913        31.5900 
 128   0.0000       1.170521        31.8515 
 129   0.0000       1.176551        32.0156 
 130   0.0000       1.243148        33.8278 
 131   0.0000       1.292143        35.1610 
 132   0.0000       1.356911        36.9234 
 133   0.0000       1.378076        37.4994 
 134   0.0000       1.417398        38.5693 
 135   0.0000       1.438964        39.1562 
 136   0.0000       1.461004        39.7559 
 137   0.0000       1.475412        40.1480 
 138   0.0000       1.483849        40.3776 
 139   0.0000       1.521319        41.3972 
 140   0.0000       1.529416        41.6175 
 141   0.0000       1.550121        42.1809 
 142   0.0000       1.565448        42.5980 
 143   0.0000       1.588172        43.2164 
 144   0.0000       1.603642        43.6373 
 145   0.0000       1.630923        44.3797 
 146   0.0000       1.634855        44.4867 
 147   0.0000       1.638778        44.5934 
 148   0.0000       1.648526        44.8587 
 149   0.0000       1.658237        45.1229 
 150   0.0000       1.669567        45.4312 
 151   0.0000       1.703316        46.3496 
 152   0.0000       1.704772        46.3892 
 153   0.0000       1.712761        46.6066 
 154   0.0000       1.730563        47.0910 
 155   0.0000       1.766435        48.0671 
 156   0.0000       1.794620        48.8341 
 157   0.0000       1.799264        48.9605 
 158   0.0000       1.863322        50.7036 
 159   0.0000       1.876511        51.0625 
 160   0.0000       1.887683        51.3665 
 161   0.0000       1.888021        51.3757 
 162   0.0000       1.903975        51.8098 
 163   0.0000       1.930306        52.5263 
 164   0.0000       1.942064        52.8463 
 165   0.0000       1.950039        53.0632 
 166   0.0000       1.959580        53.3229 
 167   0.0000       1.976581        53.7855 
 168   0.0000       1.985231        54.0209 
 169   0.0000       2.043926        55.6180 
 170   0.0000       2.052666        55.8559 
 171   0.0000       2.093489        56.9667 
 172   0.0000       2.110180        57.4209 
 173   0.0000       2.134891        58.0933 
 174   0.0000       2.163980        58.8849 
 175   0.0000       2.178301        59.2746 
 176   0.0000       2.196531        59.7707 
 177   0.0000       2.205293        60.0091 
 178   0.0000       2.213735        60.2388 
 179   0.0000       2.246722        61.1364 
 180   0.0000       2.257789        61.4376 
 181   0.0000       2.286155        62.2094 
 182   0.0000       2.318895        63.1003 
 183   0.0000       2.353462        64.0410 
 184   0.0000       2.362095        64.2759 
 185   0.0000       2.378782        64.7300 
 186   0.0000       2.417134        65.7736 
 187   0.0000       2.451968        66.7214 
 188   0.0000       2.470638        67.2295 
 189   0.0000       2.621715        71.3405 
 190   0.0000       2.633187        71.6527 
 191   0.0000       2.667371        72.5829 
 192   0.0000       2.708759        73.7091 
 193   0.0000       2.755790        74.9889 
 194   0.0000       2.763399        75.1959 
 195   0.0000       2.767951        75.3198 
 196   0.0000       2.853647        77.6517 
 197   0.0000       2.896751        78.8246 
 198   0.0000       2.939806        79.9962 
 199   0.0000       3.006510        81.8113 
 200   0.0000       3.050818        83.0170 
 201   0.0000       3.083812        83.9148 
 202   0.0000       3.127328        85.0989 
 203   0.0000       3.201989        87.1305 
 204   0.0000       3.274701        89.1092 
 205   0.0000       3.365358        91.5761 
 206   0.0000       3.510605        95.5284 
 207   0.0000       3.549112        96.5762 
 208   0.0000       3.741298       101.8059 
 209   0.0000       3.772902       102.6659 
 210   0.0000       3.833552       104.3162 
 211   0.0000       3.924012       106.7778 
 212   0.0000       4.001227       108.8789 
 213   0.0000       4.269393       116.1761 
 214   0.0000       4.716702       128.3480 
Total SCF time: 0 days 0 hours 0 min 16 sec 

Maximum memory used throughout the entire SCF-calculation: 231.6 MB

-------------------------   --------------------
FINAL SINGLE POINT ENERGY      -305.609273656320
-------------------------   --------------------


                            ***************************************
                            *     ORCA property calculations      *
                            ***************************************

                                    ---------------------
                                    Active property flags
                                    ---------------------
   (+) Dipole Moment
   (+) Polarizability


------------------------------------------------------------------------------
                       ORCA ELECTRIC PROPERTIES CALCULATION
------------------------------------------------------------------------------

Dipole Moment Calculation                       ... on
Quadrupole Moment Calculation                   ... off
Polarizability Calculation                      ... Analytic (CP-SCF)
GBWName                                         ... phenol_efield_z_0.016.gbw
Electron density                                ... phenol_efield_z_0.016.scfp
The origin for moment calculation is the CENTER OF MASS  = ( 0.892295,  6.685629  0.017111)

-------------
DIPOLE MOMENT
-------------
                                X             Y             Z
Electronic contribution:     -1.78464       0.00036       0.54874
Nuclear contribution   :      2.09690      -0.00184       0.79546
                        -----------------------------------------
Total Dipole Moment    :      0.31226      -0.00147       1.34421
                        -----------------------------------------
Magnitude (a.u.)       :      1.38000
Magnitude (Debye)      :      3.50768



--------------------
Rotational spectrum 
--------------------
 
Rotational constants in cm-1:     0.187876     0.084795     0.058746 
Rotational constants in MHz :  5632.368735  2542.097443  1761.161239 

 Dipole components along the rotational axes: 
x,y,z [a.u.] :     0.295945     0.002314     1.347891 
x,y,z [Debye]:     0.752233     0.005882     3.426068 

 
Transforming and storing MO dipole integrals   ... done

                ... starting polarizability calculation

The origin for moment calculation is the CENTER OF MASS  = ( 0.892295,  6.685629  0.017111)
Opening the Dipole integral file               ... (phenol_efield_z_0.016.dmo.tmp) done
Reading Dipole-MO integrals                    ... done
Solving CP-SCF equations                       ... 

           ************************************************************
           *        Program running with 16 parallel MPI-processes    *
           *              working on a common directory               *
           ************************************************************

------------------------------------------------------------------------------
                           ORCA CP-SCF CALCULATION
------------------------------------------------------------------------------

Input orbitals are from        ... phenol_efield_z_0.016.gbw
Input Perturbation             ... phenol_efield_z_0.016.cpv.tmp
Wavefunction output            ... phenol_efield_z_0.016.cpu.tmp
Perturbation mode              ... Real perturbation (singlet)
Solver                         ... POPLE
Max. number of iterations      ... 64
Convergence tolerance          ... 3.000e-05
Integral handling              ... Direct
Number of perturbations        ... 3
Number of operators            ... 1
Orbital ranges used for CP-SCF:
 Operator 0:  Orbitals   0... 24  to  25...214
Variables per perturbation     ... 4750
Memory available               ... 1992.1 MB
Memory needed per perturbation ...   1.4 MB
Perturbations treated per batch... 3
Number of batches              ... 1
     CP-SCF ITERATION   0:   2.0162e+00 (   2.1 sec   0/  3 done)
     CP-SCF ITERATION   1:   4.2295e-01 (   2.2 sec   0/  3 done)
     CP-SCF ITERATION   2:   9.0350e-02 (   2.2 sec   0/  3 done)
     CP-SCF ITERATION   3:   3.9657e-02 (   2.2 sec   0/  3 done)
     CP-SCF ITERATION   4:   1.1386e-02 (   2.2 sec   0/  3 done)
     CP-SCF ITERATION   5:   4.3643e-03 (   2.2 sec   0/  3 done)
     CP-SCF ITERATION   6:   2.1299e-03 (   2.2 sec   0/  3 done)
     CP-SCF ITERATION   7:   8.6883e-04 (   2.2 sec   0/  3 done)
     CP-SCF ITERATION   8:   3.2209e-04 (   2.2 sec   0/  3 done)
     CP-SCF ITERATION   9:   8.9686e-05 (   2.2 sec   2/  3 done)
     CP-SCF ITERATION  10:   2.3315e-05 (   1.5 sec   3/  3 done)
                    *** THE CP-SCF HAS CONVERGED ***
done
Reading CP-SCF coefficients                    ... done
Doing the polarizability tensor                ... done
Cleaning up                                    ... done

-------------------------
THE POLARIZABILITY TENSOR
-------------------------

The raw cartesian tensor (atomic units):
   88.60931      0.00278     -2.11497  
    0.00278     82.53490     -0.02366  
   -2.11497     -0.02366     49.23390  
diagonalized tensor: 
   49.12060     82.53491     88.72259  

    0.05348     -0.00069     -0.99857  
    0.00070      1.00000     -0.00065  
    0.99857     -0.00067      0.05348  

Isotropic polarizability :  73.45937


Timings for individual modules:

Sum of individual times         ...       48.771 sec (=   0.813 min)
GTO integral calculation        ...        2.948 sec (=   0.049 min)   6.0 %
SCF iterations                  ...       19.395 sec (=   0.323 min)  39.8 %
Solution of CP-SCF eqns.        ...       26.428 sec (=   0.440 min)  54.2 %
                             ****ORCA TERMINATED NORMALLY****
TOTAL RUN TIME: 0 days 0 hours 0 minutes 51 seconds 948 msec
