
                                 *****************
                                 * O   R   C   A *
                                 *****************

                                            #,                                       
                                            ###                                      
                                            ####                                     
                                            #####                                    
                                            ######                                   
                                           ########,                                 
                                     ,,################,,,,,                         
                               ,,#################################,,                 
                          ,,##########################################,,             
                       ,#########################################, ''#####,          
                    ,#############################################,,   '####,        
                  ,##################################################,,,,####,       
                ,###########''''           ''''###############################       
              ,#####''   ,,,,##########,,,,          '''####'''          '####       
            ,##' ,,,,###########################,,,                        '##       
           ' ,,###''''                  '''############,,,                           
         ,,##''                                '''############,,,,        ,,,,,,###''
      ,#''                                            '''#######################'''  
     '                                                          ''''####''''         
             ,#######,   #######,   ,#######,      ##                                
            ,#'     '#,  ##    ##  ,#'     '#,    #''#        ######   ,####,        
            ##       ##  ##   ,#'  ##            #'  '#       #        #'  '#        
            ##       ##  #######   ##           ,######,      #####,   #    #        
            '#,     ,#'  ##    ##  '#,     ,#' ,#      #,         ##   #,  ,#        
             '#######'   ##     ##  '#######'  #'      '#     #####' # '####'        



                  #######################################################
                  #                        -***-                        #
                  #          Department of theory and spectroscopy      #
                  #    Directorship and core code : Frank Neese         #
                  #        Max Planck Institute fuer Kohlenforschung    #
                  #                Kaiser Wilhelm Platz 1               #
                  #                 D-45470 Muelheim/Ruhr               #
                  #                      Germany                        #
                  #                                                     #
                  #                  All rights reserved                #
                  #                        -***-                        #
                  #######################################################


                         Program Version 5.0.4 -  RELEASE  -


 With contributions from (in alphabetic order):
   Daniel Aravena         : Magnetic Suceptibility
   Michael Atanasov       : Ab Initio Ligand Field Theory (pilot matlab implementation)
   Alexander A. Auer      : GIAO ZORA, VPT2 properties, NMR spectrum
   Ute Becker             : Parallelization
   Giovanni Bistoni       : ED, misc. LED, open-shell LED, HFLD
   Martin Brehm           : Molecular dynamics
   Dmytro Bykov           : SCF Hessian
   Vijay G. Chilkuri      : MRCI spin determinant printing, contributions to CSF-ICE
   Dipayan Datta          : RHF DLPNO-CCSD density
   Achintya Kumar Dutta   : EOM-CC, STEOM-CC
   Dmitry Ganyushin       : Spin-Orbit,Spin-Spin,Magnetic field MRCI
   Miquel Garcia          : C-PCM and meta-GGA Hessian, CC/C-PCM, Gaussian charge scheme
   Yang Guo               : DLPNO-NEVPT2, F12-NEVPT2, CIM, IAO-localization
   Andreas Hansen         : Spin unrestricted coupled pair/coupled cluster methods
   Benjamin Helmich-Paris : MC-RPA, TRAH-SCF, COSX integrals
   Lee Huntington         : MR-EOM, pCC
   Robert Izsak           : Overlap fitted RIJCOSX, COSX-SCS-MP3, EOM
   Marcus Kettner         : VPT2
   Christian Kollmar      : KDIIS, OOCD, Brueckner-CCSD(T), CCSD density, CASPT2, CASPT2-K
   Simone Kossmann        : Meta GGA functionals, TD-DFT gradient, OOMP2, MP2 Hessian
   Martin Krupicka        : Initial AUTO-CI
   Lucas Lang             : DCDCAS
   Marvin Lechner         : AUTO-CI (C++ implementation), FIC-MRCC
   Dagmar Lenk            : GEPOL surface, SMD
   Dimitrios Liakos       : Extrapolation schemes; Compound Job, initial MDCI parallelization
   Dimitrios Manganas     : Further ROCIS development; embedding schemes
   Dimitrios Pantazis     : SARC Basis sets
   Anastasios Papadopoulos: AUTO-CI, single reference methods and gradients
   Taras Petrenko         : DFT Hessian,TD-DFT gradient, ASA, ECA, R-Raman, ABS, FL, XAS/XES, NRVS
   Peter Pinski           : DLPNO-MP2, DLPNO-MP2 Gradient
   Christoph Reimann      : Effective Core Potentials
   Marius Retegan         : Local ZFS, SOC
   Christoph Riplinger    : Optimizer, TS searches, QM/MM, DLPNO-CCSD(T), (RO)-DLPNO pert. Triples
   Tobias Risthaus        : Range-separated hybrids, TD-DFT gradient, RPA, STAB
   Michael Roemelt        : Original ROCIS implementation
   Masaaki Saitow         : Open-shell DLPNO-CCSD energy and density
   Barbara Sandhoefer     : DKH picture change effects
   Avijit Sen             : IP-ROCIS
   Kantharuban Sivalingam : CASSCF convergence, NEVPT2, FIC-MRCI
   Bernardo de Souza      : ESD, SOC TD-DFT
   Georgi Stoychev        : AutoAux, RI-MP2 NMR, DLPNO-MP2 response
   Willem Van den Heuvel  : Paramagnetic NMR
   Boris Wezisla          : Elementary symmetry handling
   Frank Wennmohs         : Technical directorship


 We gratefully acknowledge several colleagues who have allowed us to
 interface, adapt or use parts of their codes:
   Stefan Grimme, W. Hujo, H. Kruse, P. Pracht,  : VdW corrections, initial TS optimization,
                  C. Bannwarth, S. Ehlert          DFT functionals, gCP, sTDA/sTD-DF
   Ed Valeev, F. Pavosevic, A. Kumar             : LibInt (2-el integral package), F12 methods
   Garnet Chan, S. Sharma, J. Yang, R. Olivares  : DMRG
   Ulf Ekstrom                                   : XCFun DFT Library
   Mihaly Kallay                                 : mrcc  (arbitrary order and MRCC methods)
   Jiri Pittner, Ondrej Demel                    : Mk-CCSD
   Frank Weinhold                                : gennbo (NPA and NBO analysis)
   Christopher J. Cramer and Donald G. Truhlar   : smd solvation model
   Lars Goerigk                                  : TD-DFT with DH, B97 family of functionals
   V. Asgeirsson, H. Jonsson                     : NEB implementation
   FAccTs GmbH                                   : IRC, NEB, NEB-TS, DLPNO-Multilevel, CI-OPT
                                                   MM, QMMM, 2- and 3-layer-ONIOM, Crystal-QMMM,
                                                   LR-CPCM, SF, NACMEs, symmetry and pop. for TD-DFT,
                                                   nearIR, NL-DFT gradient (VV10), updates on ESD,
                                                   ML-optimized integration grids
   S Lehtola, MJT Oliveira, MAL Marques          : LibXC Library
   Liviu Ungur et al                             : ANISO software


 Your calculation uses the libint2 library for the computation of 2-el integrals
 For citations please refer to: http://libint.valeyev.net

 Your ORCA version has been built with support for libXC version: 5.1.0
 For citations please refer to: https://tddft.org/programs/libxc/

 This ORCA versions uses:
   CBLAS   interface :  Fast vector & matrix operations
   LAPACKE interface :  Fast linear algebra routines
   SCALAPACK package :  Parallel linear algebra routines
   Shared memory     :  Shared parallel matrices
   BLAS/LAPACK       :  OpenBLAS 0.3.15  USE64BITINT DYNAMIC_ARCH NO_AFFINITY SkylakeX SINGLE_THREADED
        Core in use  :  SkylakeX
   Copyright (c) 2011-2014, The OpenBLAS Project


================================================================================

----- Orbital basis set information -----
Your calculation utilizes the basis: aug-cc-pVDZ 
    H, B-Ne : Obtained from the ccRepo (grant-hill.group.shef.ac.uk/ccrepo) Feb. 2017
              R. A. Kendall, T. H. Dunning, Jr., R. J. Harrison, J. Chem. Phys. 96, 6796 (1992)
         He : Obtained from the ccRepo (grant-hill.group.shef.ac.uk/ccrepo) Feb. 2017
              D. E. Woon, T. H. Dunning, Jr., J. Chem. Phys. 100, 2975 (1994)
  Li-Be, Na : Obtained from the ccRepo (grant-hill.group.shef.ac.uk/ccrepo) Feb. 2017
              B. P. Prascher, D. E. Woon, K. A. Peterson, T. H. Dunning, Jr., A. K. Wilson, Theor. Chem. Acc. 128, 69 (2011)
         Mg : Obtained from the Peterson Research Group Website (tyr0.chem.wsu.edu/~kipeters) Feb. 2017
              B. P. Prascher, D. E. Woon, K. A. Peterson, T. H. Dunning, Jr., A. K. Wilson, Theor. Chem. Acc. 128, 69 (2011)
      Al-Ar : Obtained from the ccRepo (grant-hill.group.shef.ac.uk/ccrepo) Feb. 2017
              D. E. Woon, T. H. Dunning, Jr., J. Chem. Phys. 98, 1358 (1993)
      Sc-Zn : Obtained from the ccRepo (grant-hill.group.shef.ac.uk/ccrepo) Feb. 2017
              N. B. Balabanov, K. A. Peterson, J. Chem. Phys. 123, 064107 (2005)
              N. B. Balabanov, K. A. Peterson, J. Chem. Phys. 125, 074110 (2006)
      Ga-Kr : Obtained from the ccRepo (grant-hill.group.shef.ac.uk/ccrepo) Feb. 2017
              A. K. Wilson, D. E. Woon, K. A. Peterson, T. H. Dunning, Jr., J. Chem. Phys. 110, 7667 (1999)

================================================================================
                                        WARNINGS
                       Please study these warnings very carefully!
================================================================================


INFO   : the flag for use of the SHARK integral package has been found!

================================================================================
                                       INPUT FILE
================================================================================
NAME = phenol_efield_x_-0.008.inp
|  1> ! hf aug-cc-pVDZ
|  2> ! MiniPrint VeryTightSCF
|  3> %pal
|  4>  nprocs 16
|  5> end
|  6> %MaxCore 2000
|  7> %scf
|  8>  maxiter=200
|  9>  efield -0.008 , 0.0 , 0.0
| 10> end
| 11> %elprop
| 12>   polar 1
| 13> end
| 14> * xyz 0 1
| 15>  C                  0.26178012    2.32984290    0.00000000
| 16>  C                  1.65694012    2.32984290    0.00000000
| 17>  C                  2.35447812    3.53759390    0.00000000
| 18>  C                  1.65682412    4.74610290   -0.00119900
| 19>  C                  0.26199912    4.74602490   -0.00167800
| 20>  C                 -0.43560188    3.53781890   -0.00068200
| 21>  H                 -0.28797888    1.37752590    0.00045000
| 22>  H                  2.20644812    1.37732990    0.00131500
| 23>  H                  3.45415812    3.53767390    0.00063400
| 24>  H                  2.20702412    5.69824590   -0.00125800
| 25>  H                 -0.28812288    5.69830590   -0.00263100
| 26>  O                 -1.86560184    3.53805688   -0.00091608
| 27>  H                 -2.18650479    3.53625036    0.90385905
| 28> *
| 29> 
| 30>                          ****END OF INPUT****
================================================================================

                       ****************************
                       * Single Point Calculation *
                       ****************************

---------------------------------
CARTESIAN COORDINATES (ANGSTROEM)
---------------------------------
  C      0.261780    2.329843    0.000000
  C      1.656940    2.329843    0.000000
  C      2.354478    3.537594    0.000000
  C      1.656824    4.746103   -0.001199
  C      0.261999    4.746025   -0.001678
  C     -0.435602    3.537819   -0.000682
  H     -0.287979    1.377526    0.000450
  H      2.206448    1.377330    0.001315
  H      3.454158    3.537674    0.000634
  H      2.207024    5.698246   -0.001258
  H     -0.288123    5.698306   -0.002631
  O     -1.865602    3.538057   -0.000916
  H     -2.186505    3.536250    0.903859

----------------------------
CARTESIAN COORDINATES (A.U.)
----------------------------
  NO LB      ZA    FRAG     MASS         X           Y           Z
   0 C     6.0000    0    12.011    0.494693    4.402765    0.000000
   1 C     6.0000    0    12.011    3.131163    4.402765    0.000000
   2 C     6.0000    0    12.011    4.449319    6.685084    0.000000
   3 C     6.0000    0    12.011    3.130944    8.968835   -0.002266
   4 C     6.0000    0    12.011    0.495107    8.968687   -0.003171
   5 C     6.0000    0    12.011   -0.823168    6.685509   -0.001289
   6 H     1.0000    0     1.008   -0.544201    2.603147    0.000850
   7 H     1.0000    0     1.008    4.169583    2.602776    0.002485
   8 H     1.0000    0     1.008    6.527413    6.685235    0.001198
   9 H     1.0000    0     1.008    4.170671   10.768124   -0.002377
  10 H     1.0000    0     1.008   -0.544473   10.768238   -0.004972
  11 O     8.0000    0    15.999   -3.525477    6.685959   -0.001731
  12 H     1.0000    0     1.008   -4.131895    6.682545    1.708046



           ************************************************************
           *        Program running with 16 parallel MPI-processes    *
           *              working on a common directory               *
           ************************************************************
------------------------------------------------------------------------------
                   ___                                                        
                  /   \      - P O W E R E D   B Y -                         
                 /     \                                                     
                 |  |  |   _    _      __       _____    __    __             
                 |  |  |  | |  | |    /  \     |  _  \  |  |  /  |          
                  \  \/   | |  | |   /    \    | | | |  |  | /  /          
                 / \  \   | |__| |  /  /\  \   | |_| |  |  |/  /          
                |  |  |   |  __  | /  /__\  \  |    /   |      \           
                |  |  |   | |  | | |   __   |  |    \   |  |\   \          
                \     /   | |  | | |  |  |  |  | |\  \  |  | \   \       
                 \___/    |_|  |_| |__|  |__|  |_| \__\ |__|  \__/        
                                                                              
                      - O R C A' S   B I G   F R I E N D -                    
                                      &                                       
                       - I N T E G R A L  F E E D E R -                       
                                                                              
 v1 FN, 2020, v2 2021                                                         
------------------------------------------------------------------------------


Reading SHARK input file phenol_efield_x_-0.008.SHARKINP.tmp ... ok
----------------------
SHARK INTEGRAL PACKAGE
----------------------

Number of atoms                             ...     13
Number of basis functions                   ...    257
Number of shells                            ...    135
Maximum angular momentum                    ...      2
Integral batch strategy                     ... SHARK/LIBINT Hybrid
RI-J (if used) integral strategy            ... SPLIT-RIJ (Revised 2003 algorithm where possible)
Printlevel                                  ...      1
Contraction scheme used                     ... PARTIAL GENERAL contraction
Coulomb Range Separation                    ... NOT USED
Exchange Range Separation                   ... NOT USED
Finite Nucleus Model                        ... NOT USED
Auxiliary Coulomb fitting basis             ... NOT available
Auxiliary J/K fitting basis                 ... NOT available
Auxiliary Correlation fitting basis         ... NOT available
Auxiliary 'external' fitting basis          ... NOT available
Integral threshold                          ...     1.000000e-12
Primitive cut-off                           ...     1.000000e-14
Primitive pair pre-selection threshold      ...     1.000000e-14

Calculating pre-screening integrals         ... done (  0.0 sec) Dimension = 135
Calculating pre-screening integrals (ORCA)  ... done (  0.1 sec) Dimension = 93
Organizing shell pair data                  ... done (  0.0 sec)
Shell pair information
Total number of shell pairs                 ...      9180
Shell pairs after pre-screening             ...      8071
Total number of primitive shell pairs       ...     13080
Primitive shell pairs kept                  ...     10795
          la=0 lb=0:   2934 shell pairs
          la=1 lb=0:   2805 shell pairs
          la=1 lb=1:    559 shell pairs
          la=2 lb=0:   1207 shell pairs
          la=2 lb=1:    461 shell pairs
          la=2 lb=2:    105 shell pairs

Calculating one electron integrals          ... done (  0.0 sec)
Calculating Nuclear repulsion               ... done (  0.0 sec) ENN=    268.852435669254 Eh

SHARK setup successfully completed in   0.3 seconds

Maximum memory used throughout the entire GTOINT-calculation: 17.0 MB

An Electric Field will be added: -8.000e-03 0.000e+00 0.000e+00 au

  ... done adding electric field perturbation



           ************************************************************
           *        Program running with 16 parallel MPI-processes    *
           *              working on a common directory               *
           ************************************************************

Diagonalization of the overlap matrix:
Smallest eigenvalue                        ... 2.604e-06
Time for diagonalization                   ...    0.006 sec
Threshold for overlap eigenvalues          ... 1.000e-08
Number of eigenvalues below threshold      ... 0
Time for construction of square roots      ...    0.013 sec
Total time needed                          ...    0.019 sec

Time for model grid setup =    0.055 sec

Loading Hartree-Fock densities                     ... done
Calculating cut-offs                               ... done
Initializing the effective Hamiltonian             ... done
Setting up the integral package (SHARK)            ... done
Starting the Coulomb interaction                   ... done (   0.0 sec)
Reading the grid                                   ... done
Mapping shells                                     ... done
Starting the XC term evaluation                    ... done (   0.0 sec)
Transforming the Hamiltonian                       ... done (   0.0 sec)
Diagonalizing the Hamiltonian                      ... done (   0.0 sec)
Back transforming the eigenvectors                 ... done (   0.0 sec)
Now organizing SCF variables                       ... done
--------------
SCF ITERATIONS
--------------
ITER       Energy         Delta-E        Max-DP      RMS-DP      [F,P]     Damp
               ***  Starting incremental Fock matrix formation  ***
  0   -305.3280443847   0.000000000000 0.86924990  0.02139524  0.2070824 0.7000
  1   -305.4204646691  -0.092420284450 0.63707832  0.01594307  0.1312231 0.7000
                               ***Turning on DIIS***
  2   -305.4769441435  -0.056479474335 1.47684497  0.03678825  0.0780515 0.0000
  3   -304.9866025425   0.490341601028 0.04344253  0.00167587  0.0340423 0.0000
  4   -305.5458840684  -0.559281525997 0.07225218  0.00122497  0.0057211 0.0000
                      *** Initiating the SOSCF procedure ***
                           *** Shutting down DIIS ***
                      *** Re-Reading the Fockian *** 
                      *** Removing any level shift *** 
ITER      Energy       Delta-E        Grad      Rot      Max-DP    RMS-DP
  5   -305.57696858  -0.0310845082  0.001070  0.001070  0.023159  0.000444
               *** Restarting incremental Fock matrix formation ***
  6   -305.59406856  -0.0170999845  0.000462  0.001028  0.003340  0.000083
  7   -305.59407997  -0.0000114113  0.000214  0.000525  0.005840  0.000113
  8   -305.59408310  -0.0000031322  0.000065  0.000145  0.000728  0.000023
  9   -305.59408340  -0.0000002994  0.000047  0.000199  0.000605  0.000015
 10   -305.59408353  -0.0000001231  0.000016  0.000055  0.000290  0.000007
 11   -305.59408354  -0.0000000120  0.000008  0.000033  0.000082  0.000002
 12   -305.59408354  -0.0000000023  0.000002  0.000002  0.000049  0.000001
 13   -305.59408354  -0.0000000002  0.000001  0.000001  0.000023  0.000000
                  ***Gradient check signals convergence***
              ***Rediagonalizing the Fockian in SOSCF/NRSCF***

               *****************************************************
               *                     SUCCESS                       *
               *           SCF CONVERGED AFTER  14 CYCLES          *
               *****************************************************

Total Energy       :         -305.59408354 Eh           -8315.63777 eV
  Last Energy change         ...    2.5807e-11  Tolerance :   1.0000e-09
  Last MAX-Density change    ...    3.1627e-06  Tolerance :   1.0000e-08
             **** THE GBW FILE WAS UPDATED (phenol_efield_x_-0.008.gbw) ****
             **** DENSITY phenol_efield_x_-0.008.scfp WAS UPDATED ****
             **** ENERGY FILE WAS UPDATED (phenol_efield_x_-0.008.en.tmp) ****
             **** THE GBW FILE WAS UPDATED (phenol_efield_x_-0.008.gbw) ****
             **** DENSITY phenol_efield_x_-0.008.scfp WAS UPDATED ****
----------------
ORBITAL ENERGIES
----------------

  NO   OCC          E(Eh)            E(eV) 
   0   2.0000     -20.571706      -559.7846 
   1   2.0000     -11.307916      -307.7040 
   2   2.0000     -11.261439      -306.4393 
   3   2.0000     -11.261190      -306.4326 
   4   2.0000     -11.258488      -306.3590 
   5   2.0000     -11.249705      -306.1200 
   6   2.0000     -11.249661      -306.1188 
   7   2.0000      -1.360982       -37.0342 
   8   2.0000      -1.160244       -31.5719 
   9   2.0000      -1.029716       -28.0200 
  10   2.0000      -1.015710       -27.6389 
  11   2.0000      -0.842368       -22.9220 
  12   2.0000      -0.828574       -22.5466 
  13   2.0000      -0.723431       -19.6856 
  14   2.0000      -0.678765       -18.4701 
  15   2.0000      -0.651408       -17.7257 
  16   2.0000      -0.630227       -17.1493 
  17   2.0000      -0.597505       -16.2589 
  18   2.0000      -0.583333       -15.8733 
  19   2.0000      -0.523430       -14.2433 
  20   2.0000      -0.521474       -14.1900 
  21   2.0000      -0.502918       -13.6851 
  22   2.0000      -0.468759       -12.7556 
  23   2.0000      -0.350224        -9.5301 
  24   2.0000      -0.339640        -9.2421 
  25   0.0000      -0.027137        -0.7384 
  26   0.0000       0.002894         0.0788 
  27   0.0000       0.014254         0.3879 
  28   0.0000       0.069865         1.9011 
  29   0.0000       0.073354         1.9961 
  30   0.0000       0.090920         2.4741 
  31   0.0000       0.092857         2.5268 
  32   0.0000       0.093750         2.5511 
  33   0.0000       0.102604         2.7920 
  34   0.0000       0.103885         2.8269 
  35   0.0000       0.109906         2.9907 
  36   0.0000       0.119870         3.2618 
  37   0.0000       0.132408         3.6030 
  38   0.0000       0.137506         3.7417 
  39   0.0000       0.139917         3.8073 
  40   0.0000       0.145771         3.9666 
  41   0.0000       0.146930         3.9982 
  42   0.0000       0.157064         4.2739 
  43   0.0000       0.169267         4.6060 
  44   0.0000       0.178461         4.8562 
  45   0.0000       0.179483         4.8840 
  46   0.0000       0.188173         5.1205 
  47   0.0000       0.192325         5.2334 
  48   0.0000       0.193930         5.2771 
  49   0.0000       0.197673         5.3790 
  50   0.0000       0.211527         5.7559 
  51   0.0000       0.244160         6.6439 
  52   0.0000       0.252721         6.8769 
  53   0.0000       0.279986         7.6188 
  54   0.0000       0.291715         7.9380 
  55   0.0000       0.295206         8.0330 
  56   0.0000       0.306734         8.3467 
  57   0.0000       0.311146         8.4667 
  58   0.0000       0.320331         8.7166 
  59   0.0000       0.335027         9.1165 
  60   0.0000       0.337974         9.1967 
  61   0.0000       0.343112         9.3365 
  62   0.0000       0.349543         9.5115 
  63   0.0000       0.356741         9.7074 
  64   0.0000       0.365375         9.9424 
  65   0.0000       0.365488         9.9454 
  66   0.0000       0.388944        10.5837 
  67   0.0000       0.391121        10.6430 
  68   0.0000       0.397611        10.8195 
  69   0.0000       0.411535        11.1984 
  70   0.0000       0.412786        11.2325 
  71   0.0000       0.431133        11.7317 
  72   0.0000       0.433832        11.8052 
  73   0.0000       0.455298        12.3893 
  74   0.0000       0.462553        12.5867 
  75   0.0000       0.490214        13.3394 
  76   0.0000       0.494937        13.4679 
  77   0.0000       0.497758        13.5447 
  78   0.0000       0.523386        14.2421 
  79   0.0000       0.528589        14.3836 
  80   0.0000       0.534795        14.5525 
  81   0.0000       0.555283        15.1100 
  82   0.0000       0.569535        15.4978 
  83   0.0000       0.570319        15.5192 
  84   0.0000       0.585404        15.9296 
  85   0.0000       0.589011        16.0278 
  86   0.0000       0.601190        16.3592 
  87   0.0000       0.602056        16.3828 
  88   0.0000       0.625213        17.0129 
  89   0.0000       0.641549        17.4574 
  90   0.0000       0.645651        17.5691 
  91   0.0000       0.665650        18.1133 
  92   0.0000       0.672149        18.2901 
  93   0.0000       0.677025        18.4228 
  94   0.0000       0.679032        18.4774 
  95   0.0000       0.683635        18.6027 
  96   0.0000       0.702847        19.1254 
  97   0.0000       0.721191        19.6246 
  98   0.0000       0.738854        20.1052 
  99   0.0000       0.745099        20.2752 
 100   0.0000       0.749346        20.3908 
 101   0.0000       0.756982        20.5985 
 102   0.0000       0.760209        20.6863 
 103   0.0000       0.767707        20.8904 
 104   0.0000       0.797133        21.6911 
 105   0.0000       0.832389        22.6505 
 106   0.0000       0.847233        23.0544 
 107   0.0000       0.859816        23.3968 
 108   0.0000       0.865001        23.5379 
 109   0.0000       0.872158        23.7326 
 110   0.0000       0.907566        24.6961 
 111   0.0000       0.908505        24.7217 
 112   0.0000       0.923086        25.1185 
 113   0.0000       0.924870        25.1670 
 114   0.0000       0.932594        25.3772 
 115   0.0000       0.935272        25.4500 
 116   0.0000       0.941614        25.6226 
 117   0.0000       0.955779        26.0081 
 118   0.0000       0.970187        26.4001 
 119   0.0000       0.973997        26.5038 
 120   0.0000       0.991758        26.9871 
 121   0.0000       1.034189        28.1417 
 122   0.0000       1.036932        28.2164 
 123   0.0000       1.050214        28.5778 
 124   0.0000       1.064264        28.9601 
 125   0.0000       1.086806        29.5735 
 126   0.0000       1.147444        31.2235 
 127   0.0000       1.150642        31.3105 
 128   0.0000       1.169793        31.8317 
 129   0.0000       1.172881        31.9157 
 130   0.0000       1.265157        34.4267 
 131   0.0000       1.298080        35.3226 
 132   0.0000       1.366888        37.1949 
 133   0.0000       1.378090        37.4997 
 134   0.0000       1.413764        38.4705 
 135   0.0000       1.443734        39.2860 
 136   0.0000       1.460542        39.7434 
 137   0.0000       1.472307        40.0635 
 138   0.0000       1.477638        40.2086 
 139   0.0000       1.519043        41.3353 
 140   0.0000       1.520112        41.3643 
 141   0.0000       1.543735        42.0072 
 142   0.0000       1.558347        42.4048 
 143   0.0000       1.582501        43.0620 
 144   0.0000       1.599116        43.5141 
 145   0.0000       1.619334        44.0643 
 146   0.0000       1.627882        44.2969 
 147   0.0000       1.632347        44.4184 
 148   0.0000       1.644480        44.7486 
 149   0.0000       1.661809        45.2201 
 150   0.0000       1.672625        45.5144 
 151   0.0000       1.696442        46.1625 
 152   0.0000       1.700321        46.2681 
 153   0.0000       1.709849        46.5274 
 154   0.0000       1.727621        47.0110 
 155   0.0000       1.764073        48.0029 
 156   0.0000       1.793856        48.8133 
 157   0.0000       1.797625        48.9159 
 158   0.0000       1.867238        50.8101 
 159   0.0000       1.875533        51.0358 
 160   0.0000       1.882329        51.2208 
 161   0.0000       1.884183        51.2712 
 162   0.0000       1.901982        51.7556 
 163   0.0000       1.922855        52.3235 
 164   0.0000       1.940109        52.7930 
 165   0.0000       1.940327        52.7990 
 166   0.0000       1.954496        53.1845 
 167   0.0000       1.970117        53.6096 
 168   0.0000       1.984880        54.0113 
 169   0.0000       2.040696        55.5302 
 170   0.0000       2.052699        55.8568 
 171   0.0000       2.077468        56.5308 
 172   0.0000       2.104910        57.2775 
 173   0.0000       2.135814        58.1184 
 174   0.0000       2.165273        58.9201 
 175   0.0000       2.175900        59.2093 
 176   0.0000       2.195614        59.7457 
 177   0.0000       2.199213        59.8436 
 178   0.0000       2.208552        60.0977 
 179   0.0000       2.242978        61.0345 
 180   0.0000       2.253709        61.3265 
 181   0.0000       2.283900        62.1481 
 182   0.0000       2.307743        62.7969 
 183   0.0000       2.348737        63.9124 
 184   0.0000       2.354626        64.0726 
 185   0.0000       2.376637        64.6716 
 186   0.0000       2.412636        65.6512 
 187   0.0000       2.450549        66.6828 
 188   0.0000       2.472790        67.2880 
 189   0.0000       2.617123        71.2155 
 190   0.0000       2.640148        71.8421 
 191   0.0000       2.665674        72.5367 
 192   0.0000       2.708304        73.6967 
 193   0.0000       2.745526        74.7096 
 194   0.0000       2.752956        74.9117 
 195   0.0000       2.757911        75.0466 
 196   0.0000       2.855623        77.7055 
 197   0.0000       2.894412        78.7610 
 198   0.0000       2.934251        79.8450 
 199   0.0000       3.006098        81.8001 
 200   0.0000       3.049408        82.9786 
 201   0.0000       3.077079        83.7316 
 202   0.0000       3.119118        84.8755 
 203   0.0000       3.196634        86.9848 
 204   0.0000       3.266870        88.8960 
 205   0.0000       3.379457        91.9597 
 206   0.0000       3.514325        95.6297 
 207   0.0000       3.543612        96.4266 
 208   0.0000       3.744657       101.8973 
 209   0.0000       3.790740       103.1513 
 210   0.0000       3.844542       104.6153 
 211   0.0000       3.939846       107.2087 
 212   0.0000       4.011354       109.1545 
 213   0.0000       4.285274       116.6082 
 214   0.0000       4.712663       128.2381 
Total SCF time: 0 days 0 hours 0 min 17 sec 

Maximum memory used throughout the entire SCF-calculation: 231.6 MB

-------------------------   --------------------
FINAL SINGLE POINT ENERGY      -305.594083541706
-------------------------   --------------------


                            ***************************************
                            *     ORCA property calculations      *
                            ***************************************

                                    ---------------------
                                    Active property flags
                                    ---------------------
   (+) Dipole Moment
   (+) Polarizability


------------------------------------------------------------------------------
                       ORCA ELECTRIC PROPERTIES CALCULATION
------------------------------------------------------------------------------

Dipole Moment Calculation                       ... on
Quadrupole Moment Calculation                   ... off
Polarizability Calculation                      ... Analytic (CP-SCF)
GBWName                                         ... phenol_efield_x_-0.008.gbw
Electron density                                ... phenol_efield_x_-0.008.scfp
The origin for moment calculation is the CENTER OF MASS  = ( 0.892295,  6.685629  0.017111)

-------------
DIPOLE MOMENT
-------------
                                X             Y             Z
Electronic contribution:     -2.46613       0.00071      -0.21229
Nuclear contribution   :      2.09690      -0.00184       0.79546
                        -----------------------------------------
Total Dipole Moment    :     -0.36923      -0.00113       0.58317
                        -----------------------------------------
Magnitude (a.u.)       :      0.69023
Magnitude (Debye)      :      1.75443



--------------------
Rotational spectrum 
--------------------
 
Rotational constants in cm-1:     0.187876     0.084795     0.058746 
Rotational constants in MHz :  5632.368735  2542.097443  1761.161239 

 Dipole components along the rotational axes: 
x,y,z [a.u.] :    -0.376270     0.001502     0.578654 
x,y,z [Debye]:    -0.956403     0.003818     1.470821 

 
Transforming and storing MO dipole integrals   ... done

                ... starting polarizability calculation

The origin for moment calculation is the CENTER OF MASS  = ( 0.892295,  6.685629  0.017111)
Opening the Dipole integral file               ... (phenol_efield_x_-0.008.dmo.tmp) done
Reading Dipole-MO integrals                    ... done
Solving CP-SCF equations                       ... 

           ************************************************************
           *        Program running with 16 parallel MPI-processes    *
           *              working on a common directory               *
           ************************************************************

------------------------------------------------------------------------------
                           ORCA CP-SCF CALCULATION
------------------------------------------------------------------------------

Input orbitals are from        ... phenol_efield_x_-0.008.gbw
Input Perturbation             ... phenol_efield_x_-0.008.cpv.tmp
Wavefunction output            ... phenol_efield_x_-0.008.cpu.tmp
Perturbation mode              ... Real perturbation (singlet)
Solver                         ... POPLE
Max. number of iterations      ... 64
Convergence tolerance          ... 3.000e-05
Integral handling              ... Direct
Number of perturbations        ... 3
Number of operators            ... 1
Orbital ranges used for CP-SCF:
 Operator 0:  Orbitals   0... 24  to  25...214
Variables per perturbation     ... 4750
Memory available               ... 1992.1 MB
Memory needed per perturbation ...   1.4 MB
Perturbations treated per batch... 3
Number of batches              ... 1
     CP-SCF ITERATION   0:   2.0026e+00 (   2.2 sec   0/  3 done)
     CP-SCF ITERATION   1:   4.2860e-01 (   2.2 sec   0/  3 done)
     CP-SCF ITERATION   2:   9.6275e-02 (   2.2 sec   0/  3 done)
     CP-SCF ITERATION   3:   4.3355e-02 (   2.2 sec   0/  3 done)
     CP-SCF ITERATION   4:   1.3265e-02 (   2.2 sec   0/  3 done)
     CP-SCF ITERATION   5:   5.5446e-03 (   2.2 sec   0/  3 done)
     CP-SCF ITERATION   6:   2.7374e-03 (   2.2 sec   0/  3 done)
     CP-SCF ITERATION   7:   1.0011e-03 (   2.2 sec   0/  3 done)
     CP-SCF ITERATION   8:   3.3887e-04 (   2.3 sec   0/  3 done)
     CP-SCF ITERATION   9:   8.9073e-05 (   2.2 sec   1/  3 done)
     CP-SCF ITERATION  10:   2.4779e-05 (   1.9 sec   3/  3 done)
                    *** THE CP-SCF HAS CONVERGED ***
done
Reading CP-SCF coefficients                    ... done
Doing the polarizability tensor                ... done
Cleaning up                                    ... done

-------------------------
THE POLARIZABILITY TENSOR
-------------------------

The raw cartesian tensor (atomic units):
   89.39420      0.00335     -1.40852  
    0.00335     81.95662     -0.02306  
   -1.40852     -0.02306     48.28454  
diagonalized tensor: 
   48.23633     81.95664     89.44241  

    0.03420     -0.00058     -0.99941  
    0.00068      1.00000     -0.00055  
    0.99941     -0.00066      0.03420  

Isotropic polarizability :  73.21179


Timings for individual modules:

Sum of individual times         ...       49.481 sec (=   0.825 min)
GTO integral calculation        ...        2.900 sec (=   0.048 min)   5.9 %
SCF iterations                  ...       19.704 sec (=   0.328 min)  39.8 %
Solution of CP-SCF eqns.        ...       26.877 sec (=   0.448 min)  54.3 %
                             ****ORCA TERMINATED NORMALLY****
TOTAL RUN TIME: 0 days 0 hours 0 minutes 52 seconds 674 msec
