
                                 *****************
                                 * O   R   C   A *
                                 *****************

                                            #,                                       
                                            ###                                      
                                            ####                                     
                                            #####                                    
                                            ######                                   
                                           ########,                                 
                                     ,,################,,,,,                         
                               ,,#################################,,                 
                          ,,##########################################,,             
                       ,#########################################, ''#####,          
                    ,#############################################,,   '####,        
                  ,##################################################,,,,####,       
                ,###########''''           ''''###############################       
              ,#####''   ,,,,##########,,,,          '''####'''          '####       
            ,##' ,,,,###########################,,,                        '##       
           ' ,,###''''                  '''############,,,                           
         ,,##''                                '''############,,,,        ,,,,,,###''
      ,#''                                            '''#######################'''  
     '                                                          ''''####''''         
             ,#######,   #######,   ,#######,      ##                                
            ,#'     '#,  ##    ##  ,#'     '#,    #''#        ######   ,####,        
            ##       ##  ##   ,#'  ##            #'  '#       #        #'  '#        
            ##       ##  #######   ##           ,######,      #####,   #    #        
            '#,     ,#'  ##    ##  '#,     ,#' ,#      #,         ##   #,  ,#        
             '#######'   ##     ##  '#######'  #'      '#     #####' # '####'        



                  #######################################################
                  #                        -***-                        #
                  #          Department of theory and spectroscopy      #
                  #    Directorship and core code : Frank Neese         #
                  #        Max Planck Institute fuer Kohlenforschung    #
                  #                Kaiser Wilhelm Platz 1               #
                  #                 D-45470 Muelheim/Ruhr               #
                  #                      Germany                        #
                  #                                                     #
                  #                  All rights reserved                #
                  #                        -***-                        #
                  #######################################################


                         Program Version 5.0.4 -  RELEASE  -


 With contributions from (in alphabetic order):
   Daniel Aravena         : Magnetic Suceptibility
   Michael Atanasov       : Ab Initio Ligand Field Theory (pilot matlab implementation)
   Alexander A. Auer      : GIAO ZORA, VPT2 properties, NMR spectrum
   Ute Becker             : Parallelization
   Giovanni Bistoni       : ED, misc. LED, open-shell LED, HFLD
   Martin Brehm           : Molecular dynamics
   Dmytro Bykov           : SCF Hessian
   Vijay G. Chilkuri      : MRCI spin determinant printing, contributions to CSF-ICE
   Dipayan Datta          : RHF DLPNO-CCSD density
   Achintya Kumar Dutta   : EOM-CC, STEOM-CC
   Dmitry Ganyushin       : Spin-Orbit,Spin-Spin,Magnetic field MRCI
   Miquel Garcia          : C-PCM and meta-GGA Hessian, CC/C-PCM, Gaussian charge scheme
   Yang Guo               : DLPNO-NEVPT2, F12-NEVPT2, CIM, IAO-localization
   Andreas Hansen         : Spin unrestricted coupled pair/coupled cluster methods
   Benjamin Helmich-Paris : MC-RPA, TRAH-SCF, COSX integrals
   Lee Huntington         : MR-EOM, pCC
   Robert Izsak           : Overlap fitted RIJCOSX, COSX-SCS-MP3, EOM
   Marcus Kettner         : VPT2
   Christian Kollmar      : KDIIS, OOCD, Brueckner-CCSD(T), CCSD density, CASPT2, CASPT2-K
   Simone Kossmann        : Meta GGA functionals, TD-DFT gradient, OOMP2, MP2 Hessian
   Martin Krupicka        : Initial AUTO-CI
   Lucas Lang             : DCDCAS
   Marvin Lechner         : AUTO-CI (C++ implementation), FIC-MRCC
   Dagmar Lenk            : GEPOL surface, SMD
   Dimitrios Liakos       : Extrapolation schemes; Compound Job, initial MDCI parallelization
   Dimitrios Manganas     : Further ROCIS development; embedding schemes
   Dimitrios Pantazis     : SARC Basis sets
   Anastasios Papadopoulos: AUTO-CI, single reference methods and gradients
   Taras Petrenko         : DFT Hessian,TD-DFT gradient, ASA, ECA, R-Raman, ABS, FL, XAS/XES, NRVS
   Peter Pinski           : DLPNO-MP2, DLPNO-MP2 Gradient
   Christoph Reimann      : Effective Core Potentials
   Marius Retegan         : Local ZFS, SOC
   Christoph Riplinger    : Optimizer, TS searches, QM/MM, DLPNO-CCSD(T), (RO)-DLPNO pert. Triples
   Tobias Risthaus        : Range-separated hybrids, TD-DFT gradient, RPA, STAB
   Michael Roemelt        : Original ROCIS implementation
   Masaaki Saitow         : Open-shell DLPNO-CCSD energy and density
   Barbara Sandhoefer     : DKH picture change effects
   Avijit Sen             : IP-ROCIS
   Kantharuban Sivalingam : CASSCF convergence, NEVPT2, FIC-MRCI
   Bernardo de Souza      : ESD, SOC TD-DFT
   Georgi Stoychev        : AutoAux, RI-MP2 NMR, DLPNO-MP2 response
   Willem Van den Heuvel  : Paramagnetic NMR
   Boris Wezisla          : Elementary symmetry handling
   Frank Wennmohs         : Technical directorship


 We gratefully acknowledge several colleagues who have allowed us to
 interface, adapt or use parts of their codes:
   Stefan Grimme, W. Hujo, H. Kruse, P. Pracht,  : VdW corrections, initial TS optimization,
                  C. Bannwarth, S. Ehlert          DFT functionals, gCP, sTDA/sTD-DF
   Ed Valeev, F. Pavosevic, A. Kumar             : LibInt (2-el integral package), F12 methods
   Garnet Chan, S. Sharma, J. Yang, R. Olivares  : DMRG
   Ulf Ekstrom                                   : XCFun DFT Library
   Mihaly Kallay                                 : mrcc  (arbitrary order and MRCC methods)
   Jiri Pittner, Ondrej Demel                    : Mk-CCSD
   Frank Weinhold                                : gennbo (NPA and NBO analysis)
   Christopher J. Cramer and Donald G. Truhlar   : smd solvation model
   Lars Goerigk                                  : TD-DFT with DH, B97 family of functionals
   V. Asgeirsson, H. Jonsson                     : NEB implementation
   FAccTs GmbH                                   : IRC, NEB, NEB-TS, DLPNO-Multilevel, CI-OPT
                                                   MM, QMMM, 2- and 3-layer-ONIOM, Crystal-QMMM,
                                                   LR-CPCM, SF, NACMEs, symmetry and pop. for TD-DFT,
                                                   nearIR, NL-DFT gradient (VV10), updates on ESD,
                                                   ML-optimized integration grids
   S Lehtola, MJT Oliveira, MAL Marques          : LibXC Library
   Liviu Ungur et al                             : ANISO software


 Your calculation uses the libint2 library for the computation of 2-el integrals
 For citations please refer to: http://libint.valeyev.net

 Your ORCA version has been built with support for libXC version: 5.1.0
 For citations please refer to: https://tddft.org/programs/libxc/

 This ORCA versions uses:
   CBLAS   interface :  Fast vector & matrix operations
   LAPACKE interface :  Fast linear algebra routines
   SCALAPACK package :  Parallel linear algebra routines
   Shared memory     :  Shared parallel matrices
   BLAS/LAPACK       :  OpenBLAS 0.3.15  USE64BITINT DYNAMIC_ARCH NO_AFFINITY SkylakeX SINGLE_THREADED
        Core in use  :  SkylakeX
   Copyright (c) 2011-2014, The OpenBLAS Project


================================================================================

----- Orbital basis set information -----
Your calculation utilizes the basis: aug-cc-pVDZ 
    H, B-Ne : Obtained from the ccRepo (grant-hill.group.shef.ac.uk/ccrepo) Feb. 2017
              R. A. Kendall, T. H. Dunning, Jr., R. J. Harrison, J. Chem. Phys. 96, 6796 (1992)
         He : Obtained from the ccRepo (grant-hill.group.shef.ac.uk/ccrepo) Feb. 2017
              D. E. Woon, T. H. Dunning, Jr., J. Chem. Phys. 100, 2975 (1994)
  Li-Be, Na : Obtained from the ccRepo (grant-hill.group.shef.ac.uk/ccrepo) Feb. 2017
              B. P. Prascher, D. E. Woon, K. A. Peterson, T. H. Dunning, Jr., A. K. Wilson, Theor. Chem. Acc. 128, 69 (2011)
         Mg : Obtained from the Peterson Research Group Website (tyr0.chem.wsu.edu/~kipeters) Feb. 2017
              B. P. Prascher, D. E. Woon, K. A. Peterson, T. H. Dunning, Jr., A. K. Wilson, Theor. Chem. Acc. 128, 69 (2011)
      Al-Ar : Obtained from the ccRepo (grant-hill.group.shef.ac.uk/ccrepo) Feb. 2017
              D. E. Woon, T. H. Dunning, Jr., J. Chem. Phys. 98, 1358 (1993)
      Sc-Zn : Obtained from the ccRepo (grant-hill.group.shef.ac.uk/ccrepo) Feb. 2017
              N. B. Balabanov, K. A. Peterson, J. Chem. Phys. 123, 064107 (2005)
              N. B. Balabanov, K. A. Peterson, J. Chem. Phys. 125, 074110 (2006)
      Ga-Kr : Obtained from the ccRepo (grant-hill.group.shef.ac.uk/ccrepo) Feb. 2017
              A. K. Wilson, D. E. Woon, K. A. Peterson, T. H. Dunning, Jr., J. Chem. Phys. 110, 7667 (1999)

================================================================================
                                        WARNINGS
                       Please study these warnings very carefully!
================================================================================


INFO   : the flag for use of the SHARK integral package has been found!

================================================================================
                                       INPUT FILE
================================================================================
NAME = phenol_efield_z_0.002.inp
|  1> ! hf aug-cc-pVDZ
|  2> ! MiniPrint VeryTightSCF
|  3> %pal
|  4>  nprocs 16
|  5> end
|  6> %MaxCore 2000
|  7> %scf
|  8>  maxiter=200
|  9>  efield 0.0 , 0.0 , 0.002
| 10> end
| 11> %elprop
| 12>   polar 1
| 13> end
| 14> * xyz 0 1
| 15>  C                  0.26178012    2.32984290    0.00000000
| 16>  C                  1.65694012    2.32984290    0.00000000
| 17>  C                  2.35447812    3.53759390    0.00000000
| 18>  C                  1.65682412    4.74610290   -0.00119900
| 19>  C                  0.26199912    4.74602490   -0.00167800
| 20>  C                 -0.43560188    3.53781890   -0.00068200
| 21>  H                 -0.28797888    1.37752590    0.00045000
| 22>  H                  2.20644812    1.37732990    0.00131500
| 23>  H                  3.45415812    3.53767390    0.00063400
| 24>  H                  2.20702412    5.69824590   -0.00125800
| 25>  H                 -0.28812288    5.69830590   -0.00263100
| 26>  O                 -1.86560184    3.53805688   -0.00091608
| 27>  H                 -2.18650479    3.53625036    0.90385905
| 28> *
| 29> 
| 30>                          ****END OF INPUT****
================================================================================

                       ****************************
                       * Single Point Calculation *
                       ****************************

---------------------------------
CARTESIAN COORDINATES (ANGSTROEM)
---------------------------------
  C      0.261780    2.329843    0.000000
  C      1.656940    2.329843    0.000000
  C      2.354478    3.537594    0.000000
  C      1.656824    4.746103   -0.001199
  C      0.261999    4.746025   -0.001678
  C     -0.435602    3.537819   -0.000682
  H     -0.287979    1.377526    0.000450
  H      2.206448    1.377330    0.001315
  H      3.454158    3.537674    0.000634
  H      2.207024    5.698246   -0.001258
  H     -0.288123    5.698306   -0.002631
  O     -1.865602    3.538057   -0.000916
  H     -2.186505    3.536250    0.903859

----------------------------
CARTESIAN COORDINATES (A.U.)
----------------------------
  NO LB      ZA    FRAG     MASS         X           Y           Z
   0 C     6.0000    0    12.011    0.494693    4.402765    0.000000
   1 C     6.0000    0    12.011    3.131163    4.402765    0.000000
   2 C     6.0000    0    12.011    4.449319    6.685084    0.000000
   3 C     6.0000    0    12.011    3.130944    8.968835   -0.002266
   4 C     6.0000    0    12.011    0.495107    8.968687   -0.003171
   5 C     6.0000    0    12.011   -0.823168    6.685509   -0.001289
   6 H     1.0000    0     1.008   -0.544201    2.603147    0.000850
   7 H     1.0000    0     1.008    4.169583    2.602776    0.002485
   8 H     1.0000    0     1.008    6.527413    6.685235    0.001198
   9 H     1.0000    0     1.008    4.170671   10.768124   -0.002377
  10 H     1.0000    0     1.008   -0.544473   10.768238   -0.004972
  11 O     8.0000    0    15.999   -3.525477    6.685959   -0.001731
  12 H     1.0000    0     1.008   -4.131895    6.682545    1.708046



           ************************************************************
           *        Program running with 16 parallel MPI-processes    *
           *              working on a common directory               *
           ************************************************************
------------------------------------------------------------------------------
                   ___                                                        
                  /   \      - P O W E R E D   B Y -                         
                 /     \                                                     
                 |  |  |   _    _      __       _____    __    __             
                 |  |  |  | |  | |    /  \     |  _  \  |  |  /  |          
                  \  \/   | |  | |   /    \    | | | |  |  | /  /          
                 / \  \   | |__| |  /  /\  \   | |_| |  |  |/  /          
                |  |  |   |  __  | /  /__\  \  |    /   |      \           
                |  |  |   | |  | | |   __   |  |    \   |  |\   \          
                \     /   | |  | | |  |  |  |  | |\  \  |  | \   \       
                 \___/    |_|  |_| |__|  |__|  |_| \__\ |__|  \__/        
                                                                              
                      - O R C A' S   B I G   F R I E N D -                    
                                      &                                       
                       - I N T E G R A L  F E E D E R -                       
                                                                              
 v1 FN, 2020, v2 2021                                                         
------------------------------------------------------------------------------


Reading SHARK input file phenol_efield_z_0.002.SHARKINP.tmp ... ok
----------------------
SHARK INTEGRAL PACKAGE
----------------------

Number of atoms                             ...     13
Number of basis functions                   ...    257
Number of shells                            ...    135
Maximum angular momentum                    ...      2
Integral batch strategy                     ... SHARK/LIBINT Hybrid
RI-J (if used) integral strategy            ... SPLIT-RIJ (Revised 2003 algorithm where possible)
Printlevel                                  ...      1
Contraction scheme used                     ... PARTIAL GENERAL contraction
Coulomb Range Separation                    ... NOT USED
Exchange Range Separation                   ... NOT USED
Finite Nucleus Model                        ... NOT USED
Auxiliary Coulomb fitting basis             ... NOT available
Auxiliary J/K fitting basis                 ... NOT available
Auxiliary Correlation fitting basis         ... NOT available
Auxiliary 'external' fitting basis          ... NOT available
Integral threshold                          ...     1.000000e-12
Primitive cut-off                           ...     1.000000e-14
Primitive pair pre-selection threshold      ...     1.000000e-14

Calculating pre-screening integrals         ... done (  0.0 sec) Dimension = 135
Calculating pre-screening integrals (ORCA)  ... done (  0.1 sec) Dimension = 93
Organizing shell pair data                  ... done (  0.0 sec)
Shell pair information
Total number of shell pairs                 ...      9180
Shell pairs after pre-screening             ...      8071
Total number of primitive shell pairs       ...     13080
Primitive shell pairs kept                  ...     10795
          la=0 lb=0:   2934 shell pairs
          la=1 lb=0:   2805 shell pairs
          la=1 lb=1:    559 shell pairs
          la=2 lb=0:   1207 shell pairs
          la=2 lb=1:    461 shell pairs
          la=2 lb=2:    105 shell pairs

Calculating one electron integrals          ... done (  0.0 sec)
Calculating Nuclear repulsion               ... done (  0.0 sec) ENN=    268.852435669254 Eh

SHARK setup successfully completed in   0.3 seconds

Maximum memory used throughout the entire GTOINT-calculation: 17.0 MB

An Electric Field will be added: 0.000e+00 0.000e+00 2.000e-03 au

  ... done adding electric field perturbation



           ************************************************************
           *        Program running with 16 parallel MPI-processes    *
           *              working on a common directory               *
           ************************************************************

Diagonalization of the overlap matrix:
Smallest eigenvalue                        ... 2.604e-06
Time for diagonalization                   ...    0.006 sec
Threshold for overlap eigenvalues          ... 1.000e-08
Number of eigenvalues below threshold      ... 0
Time for construction of square roots      ...    0.017 sec
Total time needed                          ...    0.023 sec

Time for model grid setup =    0.057 sec

Loading Hartree-Fock densities                     ... done
Calculating cut-offs                               ... done
Initializing the effective Hamiltonian             ... done
Setting up the integral package (SHARK)            ... done
Starting the Coulomb interaction                   ... done (   0.0 sec)
Reading the grid                                   ... done
Mapping shells                                     ... done
Starting the XC term evaluation                    ... done (   0.0 sec)
Transforming the Hamiltonian                       ... done (   0.0 sec)
Diagonalizing the Hamiltonian                      ... done (   0.0 sec)
Back transforming the eigenvectors                 ... done (   0.0 sec)
Now organizing SCF variables                       ... done
--------------
SCF ITERATIONS
--------------
ITER       Energy         Delta-E        Max-DP      RMS-DP      [F,P]     Damp
               ***  Starting incremental Fock matrix formation  ***
  0   -305.3393662166   0.000000000000 0.92248518  0.02228484  0.2222672 0.7000
  1   -305.4276938890  -0.088327672383 0.68011307  0.01664983  0.1389648 0.7000
                               ***Turning on DIIS***
  2   -305.4820513716  -0.054357482632 1.57355682  0.03844233  0.0808073 0.0000
  3   -305.0059063894   0.476144982158 0.03674011  0.00153798  0.0396468 0.0000
  4   -305.5476787424  -0.541772353012 0.05848236  0.00107990  0.0051131 0.0000
  5   -305.5802022662  -0.032523523787 0.01760622  0.00036967  0.0033383 0.0000
                      *** Initiating the SOSCF procedure ***
                           *** Shutting down DIIS ***
                      *** Re-Reading the Fockian *** 
                      *** Removing any level shift *** 
ITER      Energy       Delta-E        Grad      Rot      Max-DP    RMS-DP
  6   -305.59178518  -0.0115829133  0.000417  0.000417  0.002735  0.000063
               *** Restarting incremental Fock matrix formation ***
  7   -305.59521162  -0.0034264453  0.000219  0.000486  0.001302  0.000043
  8   -305.59521334  -0.0000017128  0.000111  0.000537  0.002094  0.000050
  9   -305.59521395  -0.0000006158  0.000033  0.000105  0.000303  0.000010
 10   -305.59521403  -0.0000000793  0.000016  0.000062  0.000290  0.000007
 11   -305.59521406  -0.0000000232  0.000006  0.000037  0.000093  0.000003
 12   -305.59521406  -0.0000000034  0.000002  0.000004  0.000019  0.000001
 13   -305.59521406  -0.0000000002  0.000001  0.000001  0.000019  0.000000
                  ***Gradient check signals convergence***
              ***Rediagonalizing the Fockian in SOSCF/NRSCF***

               *****************************************************
               *                     SUCCESS                       *
               *           SCF CONVERGED AFTER  14 CYCLES          *
               *****************************************************

Total Energy       :         -305.59521406 Eh           -8315.66853 eV
  Last Energy change         ...    6.8212e-13  Tolerance :   1.0000e-09
  Last MAX-Density change    ...    4.8419e-06  Tolerance :   1.0000e-08
             **** THE GBW FILE WAS UPDATED (phenol_efield_z_0.002.gbw) ****
             **** DENSITY phenol_efield_z_0.002.scfp WAS UPDATED ****
             **** ENERGY FILE WAS UPDATED (phenol_efield_z_0.002.en.tmp) ****
             **** THE GBW FILE WAS UPDATED (phenol_efield_z_0.002.gbw) ****
             **** DENSITY phenol_efield_z_0.002.scfp WAS UPDATED ****
----------------
ORBITAL ENERGIES
----------------

  NO   OCC          E(Eh)            E(eV) 
   0   2.0000     -20.587913      -560.2256 
   1   2.0000     -11.307442      -307.6911 
   2   2.0000     -11.251484      -306.1684 
   3   2.0000     -11.251371      -306.1654 
   4   2.0000     -11.246704      -306.0384 
   5   2.0000     -11.246674      -306.0376 
   6   2.0000     -11.245333      -306.0011 
   7   2.0000      -1.376297       -37.4509 
   8   2.0000      -1.153669       -31.3929 
   9   2.0000      -1.023425       -27.8488 
  10   2.0000      -1.010010       -27.4838 
  11   2.0000      -0.836571       -22.7643 
  12   2.0000      -0.824571       -22.4377 
  13   2.0000      -0.725081       -19.7305 
  14   2.0000      -0.677259       -18.4292 
  15   2.0000      -0.647437       -17.6177 
  16   2.0000      -0.628379       -17.0991 
  17   2.0000      -0.590863       -16.0782 
  18   2.0000      -0.588856       -16.0236 
  19   2.0000      -0.521844       -14.2001 
  20   2.0000      -0.515790       -14.0354 
  21   2.0000      -0.498665       -13.5694 
  22   2.0000      -0.476317       -12.9613 
  23   2.0000      -0.343678        -9.3519 
  24   2.0000      -0.334860        -9.1120 
  25   0.0000       0.035203         0.9579 
  26   0.0000       0.041439         1.1276 
  27   0.0000       0.043019         1.1706 
  28   0.0000       0.056951         1.5497 
  29   0.0000       0.058463         1.5909 
  30   0.0000       0.070233         1.9111 
  31   0.0000       0.102461         2.7881 
  32   0.0000       0.107485         2.9248 
  33   0.0000       0.114661         3.1201 
  34   0.0000       0.130124         3.5408 
  35   0.0000       0.137963         3.7542 
  36   0.0000       0.143308         3.8996 
  37   0.0000       0.143462         3.9038 
  38   0.0000       0.145479         3.9587 
  39   0.0000       0.145727         3.9654 
  40   0.0000       0.158012         4.2997 
  41   0.0000       0.158095         4.3020 
  42   0.0000       0.163142         4.4393 
  43   0.0000       0.168351         4.5811 
  44   0.0000       0.169315         4.6073 
  45   0.0000       0.179511         4.8847 
  46   0.0000       0.187342         5.0978 
  47   0.0000       0.188053         5.1172 
  48   0.0000       0.192009         5.2248 
  49   0.0000       0.193458         5.2643 
  50   0.0000       0.195253         5.3131 
  51   0.0000       0.232612         6.3297 
  52   0.0000       0.262192         7.1346 
  53   0.0000       0.273633         7.4459 
  54   0.0000       0.288830         7.8595 
  55   0.0000       0.294780         8.0214 
  56   0.0000       0.305512         8.3134 
  57   0.0000       0.305638         8.3168 
  58   0.0000       0.321058         8.7364 
  59   0.0000       0.348068         9.4714 
  60   0.0000       0.349633         9.5140 
  61   0.0000       0.353493         9.6190 
  62   0.0000       0.355747         9.6804 
  63   0.0000       0.366785         9.9807 
  64   0.0000       0.371341        10.1047 
  65   0.0000       0.374640        10.1945 
  66   0.0000       0.376671        10.2497 
  67   0.0000       0.400931        10.9099 
  68   0.0000       0.402723        10.9587 
  69   0.0000       0.411874        11.2077 
  70   0.0000       0.414420        11.2769 
  71   0.0000       0.432483        11.7685 
  72   0.0000       0.434613        11.8264 
  73   0.0000       0.441642        12.0177 
  74   0.0000       0.467538        12.7224 
  75   0.0000       0.485334        13.2066 
  76   0.0000       0.498646        13.5688 
  77   0.0000       0.501359        13.6427 
  78   0.0000       0.518392        14.1062 
  79   0.0000       0.525234        14.2923 
  80   0.0000       0.532563        14.4918 
  81   0.0000       0.556977        15.1561 
  82   0.0000       0.577909        15.7257 
  83   0.0000       0.581391        15.8205 
  84   0.0000       0.588880        16.0242 
  85   0.0000       0.597099        16.2479 
  86   0.0000       0.606431        16.5018 
  87   0.0000       0.618412        16.8278 
  88   0.0000       0.632528        17.2120 
  89   0.0000       0.648684        17.6516 
  90   0.0000       0.655077        17.8255 
  91   0.0000       0.668006        18.1774 
  92   0.0000       0.672888        18.3102 
  93   0.0000       0.684348        18.6220 
  94   0.0000       0.688008        18.7217 
  95   0.0000       0.689310        18.7571 
  96   0.0000       0.704959        19.1829 
  97   0.0000       0.724143        19.7049 
  98   0.0000       0.739945        20.1349 
  99   0.0000       0.752418        20.4743 
 100   0.0000       0.753393        20.5009 
 101   0.0000       0.763121        20.7656 
 102   0.0000       0.763773        20.7833 
 103   0.0000       0.770644        20.9703 
 104   0.0000       0.801296        21.8044 
 105   0.0000       0.841861        22.9082 
 106   0.0000       0.858143        23.3513 
 107   0.0000       0.866518        23.5791 
 108   0.0000       0.867910        23.6170 
 109   0.0000       0.874674        23.8011 
 110   0.0000       0.913480        24.8570 
 111   0.0000       0.918786        25.0014 
 112   0.0000       0.922436        25.1008 
 113   0.0000       0.932576        25.3767 
 114   0.0000       0.934710        25.4348 
 115   0.0000       0.938219        25.5302 
 116   0.0000       0.944765        25.7084 
 117   0.0000       0.959403        26.1067 
 118   0.0000       0.977198        26.5909 
 119   0.0000       0.980933        26.6925 
 120   0.0000       0.997155        27.1340 
 121   0.0000       1.033449        28.1216 
 122   0.0000       1.037847        28.2413 
 123   0.0000       1.042940        28.3798 
 124   0.0000       1.068492        29.0752 
 125   0.0000       1.090599        29.6767 
 126   0.0000       1.145717        31.1765 
 127   0.0000       1.161234        31.5988 
 128   0.0000       1.170673        31.8556 
 129   0.0000       1.176628        32.0177 
 130   0.0000       1.247052        33.9340 
 131   0.0000       1.292637        35.1744 
 132   0.0000       1.356315        36.9072 
 133   0.0000       1.378865        37.5208 
 134   0.0000       1.417065        38.5603 
 135   0.0000       1.438933        39.1554 
 136   0.0000       1.462216        39.7889 
 137   0.0000       1.476341        40.1733 
 138   0.0000       1.484588        40.3977 
 139   0.0000       1.520049        41.3626 
 140   0.0000       1.530279        41.6410 
 141   0.0000       1.550165        42.1821 
 142   0.0000       1.566934        42.6384 
 143   0.0000       1.587837        43.2072 
 144   0.0000       1.604597        43.6633 
 145   0.0000       1.631569        44.3973 
 146   0.0000       1.635673        44.5089 
 147   0.0000       1.639337        44.6086 
 148   0.0000       1.648637        44.8617 
 149   0.0000       1.659348        45.1531 
 150   0.0000       1.671430        45.4819 
 151   0.0000       1.703439        46.3529 
 152   0.0000       1.704153        46.3724 
 153   0.0000       1.713532        46.6276 
 154   0.0000       1.731673        47.1212 
 155   0.0000       1.767273        48.0899 
 156   0.0000       1.797805        48.9208 
 157   0.0000       1.800126        48.9839 
 158   0.0000       1.865495        50.7627 
 159   0.0000       1.876946        51.0743 
 160   0.0000       1.888347        51.3845 
 161   0.0000       1.888757        51.3957 
 162   0.0000       1.904940        51.8361 
 163   0.0000       1.930588        52.5340 
 164   0.0000       1.942756        52.8651 
 165   0.0000       1.951389        53.1000 
 166   0.0000       1.960442        53.3463 
 167   0.0000       1.977648        53.8145 
 168   0.0000       1.985940        54.0402 
 169   0.0000       2.043885        55.6169 
 170   0.0000       2.053182        55.8699 
 171   0.0000       2.094326        56.9895 
 172   0.0000       2.110912        57.4408 
 173   0.0000       2.132891        58.0389 
 174   0.0000       2.164876        58.9093 
 175   0.0000       2.179245        59.3003 
 176   0.0000       2.197540        59.7981 
 177   0.0000       2.206303        60.0366 
 178   0.0000       2.214220        60.2520 
 179   0.0000       2.246786        61.1382 
 180   0.0000       2.256611        61.4055 
 181   0.0000       2.286768        62.2261 
 182   0.0000       2.319687        63.1219 
 183   0.0000       2.354448        64.0678 
 184   0.0000       2.362808        64.2953 
 185   0.0000       2.377516        64.6955 
 186   0.0000       2.417592        65.7860 
 187   0.0000       2.452584        66.7382 
 188   0.0000       2.468002        67.1577 
 189   0.0000       2.622502        71.3619 
 190   0.0000       2.625966        71.4562 
 191   0.0000       2.667306        72.5811 
 192   0.0000       2.709826        73.7381 
 193   0.0000       2.756761        75.0153 
 194   0.0000       2.764040        75.2133 
 195   0.0000       2.768941        75.3467 
 196   0.0000       2.850535        77.5670 
 197   0.0000       2.897694        78.8503 
 198   0.0000       2.940743        80.0217 
 199   0.0000       3.006342        81.8067 
 200   0.0000       3.051779        83.0431 
 201   0.0000       3.084640        83.9373 
 202   0.0000       3.128427        85.1288 
 203   0.0000       3.202671        87.1491 
 204   0.0000       3.275695        89.1362 
 205   0.0000       3.365611        91.5829 
 206   0.0000       3.511175        95.5439 
 207   0.0000       3.550213        96.6062 
 208   0.0000       3.742127       101.8285 
 209   0.0000       3.772238       102.6478 
 210   0.0000       3.833955       104.3272 
 211   0.0000       3.923464       106.7629 
 212   0.0000       4.000752       108.8660 
 213   0.0000       4.267048       116.1123 
 214   0.0000       4.717831       128.3787 
Total SCF time: 0 days 0 hours 0 min 16 sec 

Maximum memory used throughout the entire SCF-calculation: 231.6 MB

-------------------------   --------------------
FINAL SINGLE POINT ENERGY      -305.595214059567
-------------------------   --------------------


                            ***************************************
                            *     ORCA property calculations      *
                            ***************************************

                                    ---------------------
                                    Active property flags
                                    ---------------------
   (+) Dipole Moment
   (+) Polarizability


------------------------------------------------------------------------------
                       ORCA ELECTRIC PROPERTIES CALCULATION
------------------------------------------------------------------------------

Dipole Moment Calculation                       ... on
Quadrupole Moment Calculation                   ... off
Polarizability Calculation                      ... Analytic (CP-SCF)
GBWName                                         ... phenol_efield_z_0.002.gbw
Electron density                                ... phenol_efield_z_0.002.scfp
The origin for moment calculation is the CENTER OF MASS  = ( 0.892295,  6.685629  0.017111)

-------------
DIPOLE MOMENT
-------------
                                X             Y             Z
Electronic contribution:     -1.75952       0.00069      -0.12798
Nuclear contribution   :      2.09690      -0.00184       0.79546
                        -----------------------------------------
Total Dipole Moment    :      0.33738      -0.00115       0.66748
                        -----------------------------------------
Magnitude (a.u.)       :      0.74790
Magnitude (Debye)      :      1.90102



--------------------
Rotational spectrum 
--------------------
 
Rotational constants in cm-1:     0.187876     0.084795     0.058746 
Rotational constants in MHz :  5632.368735  2542.097443  1761.161239 

 Dipole components along the rotational axes: 
x,y,z [a.u.] :     0.329268     0.001559     0.671520 
x,y,z [Debye]:     0.836934     0.003962     1.706868 

 
Transforming and storing MO dipole integrals   ... done

                ... starting polarizability calculation

The origin for moment calculation is the CENTER OF MASS  = ( 0.892295,  6.685629  0.017111)
Opening the Dipole integral file               ... (phenol_efield_z_0.002.dmo.tmp) done
Reading Dipole-MO integrals                    ... done
Solving CP-SCF equations                       ... 

           ************************************************************
           *        Program running with 16 parallel MPI-processes    *
           *              working on a common directory               *
           ************************************************************

------------------------------------------------------------------------------
                           ORCA CP-SCF CALCULATION
------------------------------------------------------------------------------

Input orbitals are from        ... phenol_efield_z_0.002.gbw
Input Perturbation             ... phenol_efield_z_0.002.cpv.tmp
Wavefunction output            ... phenol_efield_z_0.002.cpu.tmp
Perturbation mode              ... Real perturbation (singlet)
Solver                         ... POPLE
Max. number of iterations      ... 64
Convergence tolerance          ... 3.000e-05
Integral handling              ... Direct
Number of perturbations        ... 3
Number of operators            ... 1
Orbital ranges used for CP-SCF:
 Operator 0:  Orbitals   0... 24  to  25...214
Variables per perturbation     ... 4750
Memory available               ... 1992.1 MB
Memory needed per perturbation ...   1.4 MB
Perturbations treated per batch... 3
Number of batches              ... 1
     CP-SCF ITERATION   0:   2.0035e+00 (   2.2 sec   0/  3 done)
     CP-SCF ITERATION   1:   4.1783e-01 (   2.2 sec   0/  3 done)
     CP-SCF ITERATION   2:   9.0280e-02 (   2.2 sec   0/  3 done)
     CP-SCF ITERATION   3:   3.9830e-02 (   2.2 sec   0/  3 done)
     CP-SCF ITERATION   4:   1.1400e-02 (   2.3 sec   0/  3 done)
     CP-SCF ITERATION   5:   4.2856e-03 (   2.2 sec   0/  3 done)
     CP-SCF ITERATION   6:   2.2322e-03 (   2.2 sec   0/  3 done)
     CP-SCF ITERATION   7:   8.9705e-04 (   2.2 sec   0/  3 done)
     CP-SCF ITERATION   8:   3.1436e-04 (   2.3 sec   0/  3 done)
     CP-SCF ITERATION   9:   8.5035e-05 (   2.2 sec   2/  3 done)
     CP-SCF ITERATION  10:   2.2143e-05 (   1.5 sec   3/  3 done)
                    *** THE CP-SCF HAS CONVERGED ***
done
Reading CP-SCF coefficients                    ... done
Doing the polarizability tensor                ... done
Cleaning up                                    ... done

-------------------------
THE POLARIZABILITY TENSOR
-------------------------

The raw cartesian tensor (atomic units):
   88.10598      0.00297     -1.51179  
    0.00297     81.88260     -0.02327  
   -1.51179     -0.02327     47.85491  
diagonalized tensor: 
   47.79819     81.88261     88.16269  

    0.03748     -0.00064     -0.99930  
    0.00068      1.00000     -0.00061  
    0.99930     -0.00066      0.03748  

Isotropic polarizability :  72.61450


Timings for individual modules:

Sum of individual times         ...       48.960 sec (=   0.816 min)
GTO integral calculation        ...        2.895 sec (=   0.048 min)   5.9 %
SCF iterations                  ...       19.420 sec (=   0.324 min)  39.7 %
Solution of CP-SCF eqns.        ...       26.645 sec (=   0.444 min)  54.4 %
                             ****ORCA TERMINATED NORMALLY****
TOTAL RUN TIME: 0 days 0 hours 0 minutes 52 seconds 196 msec
