
                                 *****************
                                 * O   R   C   A *
                                 *****************

                                            #,                                       
                                            ###                                      
                                            ####                                     
                                            #####                                    
                                            ######                                   
                                           ########,                                 
                                     ,,################,,,,,                         
                               ,,#################################,,                 
                          ,,##########################################,,             
                       ,#########################################, ''#####,          
                    ,#############################################,,   '####,        
                  ,##################################################,,,,####,       
                ,###########''''           ''''###############################       
              ,#####''   ,,,,##########,,,,          '''####'''          '####       
            ,##' ,,,,###########################,,,                        '##       
           ' ,,###''''                  '''############,,,                           
         ,,##''                                '''############,,,,        ,,,,,,###''
      ,#''                                            '''#######################'''  
     '                                                          ''''####''''         
             ,#######,   #######,   ,#######,      ##                                
            ,#'     '#,  ##    ##  ,#'     '#,    #''#        ######   ,####,        
            ##       ##  ##   ,#'  ##            #'  '#       #        #'  '#        
            ##       ##  #######   ##           ,######,      #####,   #    #        
            '#,     ,#'  ##    ##  '#,     ,#' ,#      #,         ##   #,  ,#        
             '#######'   ##     ##  '#######'  #'      '#     #####' # '####'        



                  #######################################################
                  #                        -***-                        #
                  #          Department of theory and spectroscopy      #
                  #    Directorship and core code : Frank Neese         #
                  #        Max Planck Institute fuer Kohlenforschung    #
                  #                Kaiser Wilhelm Platz 1               #
                  #                 D-45470 Muelheim/Ruhr               #
                  #                      Germany                        #
                  #                                                     #
                  #                  All rights reserved                #
                  #                        -***-                        #
                  #######################################################


                         Program Version 5.0.4 -  RELEASE  -


 With contributions from (in alphabetic order):
   Daniel Aravena         : Magnetic Suceptibility
   Michael Atanasov       : Ab Initio Ligand Field Theory (pilot matlab implementation)
   Alexander A. Auer      : GIAO ZORA, VPT2 properties, NMR spectrum
   Ute Becker             : Parallelization
   Giovanni Bistoni       : ED, misc. LED, open-shell LED, HFLD
   Martin Brehm           : Molecular dynamics
   Dmytro Bykov           : SCF Hessian
   Vijay G. Chilkuri      : MRCI spin determinant printing, contributions to CSF-ICE
   Dipayan Datta          : RHF DLPNO-CCSD density
   Achintya Kumar Dutta   : EOM-CC, STEOM-CC
   Dmitry Ganyushin       : Spin-Orbit,Spin-Spin,Magnetic field MRCI
   Miquel Garcia          : C-PCM and meta-GGA Hessian, CC/C-PCM, Gaussian charge scheme
   Yang Guo               : DLPNO-NEVPT2, F12-NEVPT2, CIM, IAO-localization
   Andreas Hansen         : Spin unrestricted coupled pair/coupled cluster methods
   Benjamin Helmich-Paris : MC-RPA, TRAH-SCF, COSX integrals
   Lee Huntington         : MR-EOM, pCC
   Robert Izsak           : Overlap fitted RIJCOSX, COSX-SCS-MP3, EOM
   Marcus Kettner         : VPT2
   Christian Kollmar      : KDIIS, OOCD, Brueckner-CCSD(T), CCSD density, CASPT2, CASPT2-K
   Simone Kossmann        : Meta GGA functionals, TD-DFT gradient, OOMP2, MP2 Hessian
   Martin Krupicka        : Initial AUTO-CI
   Lucas Lang             : DCDCAS
   Marvin Lechner         : AUTO-CI (C++ implementation), FIC-MRCC
   Dagmar Lenk            : GEPOL surface, SMD
   Dimitrios Liakos       : Extrapolation schemes; Compound Job, initial MDCI parallelization
   Dimitrios Manganas     : Further ROCIS development; embedding schemes
   Dimitrios Pantazis     : SARC Basis sets
   Anastasios Papadopoulos: AUTO-CI, single reference methods and gradients
   Taras Petrenko         : DFT Hessian,TD-DFT gradient, ASA, ECA, R-Raman, ABS, FL, XAS/XES, NRVS
   Peter Pinski           : DLPNO-MP2, DLPNO-MP2 Gradient
   Christoph Reimann      : Effective Core Potentials
   Marius Retegan         : Local ZFS, SOC
   Christoph Riplinger    : Optimizer, TS searches, QM/MM, DLPNO-CCSD(T), (RO)-DLPNO pert. Triples
   Tobias Risthaus        : Range-separated hybrids, TD-DFT gradient, RPA, STAB
   Michael Roemelt        : Original ROCIS implementation
   Masaaki Saitow         : Open-shell DLPNO-CCSD energy and density
   Barbara Sandhoefer     : DKH picture change effects
   Avijit Sen             : IP-ROCIS
   Kantharuban Sivalingam : CASSCF convergence, NEVPT2, FIC-MRCI
   Bernardo de Souza      : ESD, SOC TD-DFT
   Georgi Stoychev        : AutoAux, RI-MP2 NMR, DLPNO-MP2 response
   Willem Van den Heuvel  : Paramagnetic NMR
   Boris Wezisla          : Elementary symmetry handling
   Frank Wennmohs         : Technical directorship


 We gratefully acknowledge several colleagues who have allowed us to
 interface, adapt or use parts of their codes:
   Stefan Grimme, W. Hujo, H. Kruse, P. Pracht,  : VdW corrections, initial TS optimization,
                  C. Bannwarth, S. Ehlert          DFT functionals, gCP, sTDA/sTD-DF
   Ed Valeev, F. Pavosevic, A. Kumar             : LibInt (2-el integral package), F12 methods
   Garnet Chan, S. Sharma, J. Yang, R. Olivares  : DMRG
   Ulf Ekstrom                                   : XCFun DFT Library
   Mihaly Kallay                                 : mrcc  (arbitrary order and MRCC methods)
   Jiri Pittner, Ondrej Demel                    : Mk-CCSD
   Frank Weinhold                                : gennbo (NPA and NBO analysis)
   Christopher J. Cramer and Donald G. Truhlar   : smd solvation model
   Lars Goerigk                                  : TD-DFT with DH, B97 family of functionals
   V. Asgeirsson, H. Jonsson                     : NEB implementation
   FAccTs GmbH                                   : IRC, NEB, NEB-TS, DLPNO-Multilevel, CI-OPT
                                                   MM, QMMM, 2- and 3-layer-ONIOM, Crystal-QMMM,
                                                   LR-CPCM, SF, NACMEs, symmetry and pop. for TD-DFT,
                                                   nearIR, NL-DFT gradient (VV10), updates on ESD,
                                                   ML-optimized integration grids
   S Lehtola, MJT Oliveira, MAL Marques          : LibXC Library
   Liviu Ungur et al                             : ANISO software


 Your calculation uses the libint2 library for the computation of 2-el integrals
 For citations please refer to: http://libint.valeyev.net

 Your ORCA version has been built with support for libXC version: 5.1.0
 For citations please refer to: https://tddft.org/programs/libxc/

 This ORCA versions uses:
   CBLAS   interface :  Fast vector & matrix operations
   LAPACKE interface :  Fast linear algebra routines
   SCALAPACK package :  Parallel linear algebra routines
   Shared memory     :  Shared parallel matrices
   BLAS/LAPACK       :  OpenBLAS 0.3.15  USE64BITINT DYNAMIC_ARCH NO_AFFINITY SkylakeX SINGLE_THREADED
        Core in use  :  SkylakeX
   Copyright (c) 2011-2014, The OpenBLAS Project


================================================================================

----- Orbital basis set information -----
Your calculation utilizes the basis: aug-cc-pVDZ 
    H, B-Ne : Obtained from the ccRepo (grant-hill.group.shef.ac.uk/ccrepo) Feb. 2017
              R. A. Kendall, T. H. Dunning, Jr., R. J. Harrison, J. Chem. Phys. 96, 6796 (1992)
         He : Obtained from the ccRepo (grant-hill.group.shef.ac.uk/ccrepo) Feb. 2017
              D. E. Woon, T. H. Dunning, Jr., J. Chem. Phys. 100, 2975 (1994)
  Li-Be, Na : Obtained from the ccRepo (grant-hill.group.shef.ac.uk/ccrepo) Feb. 2017
              B. P. Prascher, D. E. Woon, K. A. Peterson, T. H. Dunning, Jr., A. K. Wilson, Theor. Chem. Acc. 128, 69 (2011)
         Mg : Obtained from the Peterson Research Group Website (tyr0.chem.wsu.edu/~kipeters) Feb. 2017
              B. P. Prascher, D. E. Woon, K. A. Peterson, T. H. Dunning, Jr., A. K. Wilson, Theor. Chem. Acc. 128, 69 (2011)
      Al-Ar : Obtained from the ccRepo (grant-hill.group.shef.ac.uk/ccrepo) Feb. 2017
              D. E. Woon, T. H. Dunning, Jr., J. Chem. Phys. 98, 1358 (1993)
      Sc-Zn : Obtained from the ccRepo (grant-hill.group.shef.ac.uk/ccrepo) Feb. 2017
              N. B. Balabanov, K. A. Peterson, J. Chem. Phys. 123, 064107 (2005)
              N. B. Balabanov, K. A. Peterson, J. Chem. Phys. 125, 074110 (2006)
      Ga-Kr : Obtained from the ccRepo (grant-hill.group.shef.ac.uk/ccrepo) Feb. 2017
              A. K. Wilson, D. E. Woon, K. A. Peterson, T. H. Dunning, Jr., J. Chem. Phys. 110, 7667 (1999)

================================================================================
                                        WARNINGS
                       Please study these warnings very carefully!
================================================================================


INFO   : the flag for use of the SHARK integral package has been found!

================================================================================
                                       INPUT FILE
================================================================================
NAME = phenol_efield_z_-0.032.inp
|  1> ! hf aug-cc-pVDZ
|  2> ! MiniPrint VeryTightSCF
|  3> %pal
|  4>  nprocs 16
|  5> end
|  6> %MaxCore 2000
|  7> %scf
|  8>  maxiter=200
|  9>  efield 0.0 , 0.0 , -0.032
| 10> end
| 11> %elprop
| 12>   polar 1
| 13> end
| 14> * xyz 0 1
| 15>  C                  0.26178012    2.32984290    0.00000000
| 16>  C                  1.65694012    2.32984290    0.00000000
| 17>  C                  2.35447812    3.53759390    0.00000000
| 18>  C                  1.65682412    4.74610290   -0.00119900
| 19>  C                  0.26199912    4.74602490   -0.00167800
| 20>  C                 -0.43560188    3.53781890   -0.00068200
| 21>  H                 -0.28797888    1.37752590    0.00045000
| 22>  H                  2.20644812    1.37732990    0.00131500
| 23>  H                  3.45415812    3.53767390    0.00063400
| 24>  H                  2.20702412    5.69824590   -0.00125800
| 25>  H                 -0.28812288    5.69830590   -0.00263100
| 26>  O                 -1.86560184    3.53805688   -0.00091608
| 27>  H                 -2.18650479    3.53625036    0.90385905
| 28> *
| 29> 
| 30>                          ****END OF INPUT****
================================================================================

                       ****************************
                       * Single Point Calculation *
                       ****************************

---------------------------------
CARTESIAN COORDINATES (ANGSTROEM)
---------------------------------
  C      0.261780    2.329843    0.000000
  C      1.656940    2.329843    0.000000
  C      2.354478    3.537594    0.000000
  C      1.656824    4.746103   -0.001199
  C      0.261999    4.746025   -0.001678
  C     -0.435602    3.537819   -0.000682
  H     -0.287979    1.377526    0.000450
  H      2.206448    1.377330    0.001315
  H      3.454158    3.537674    0.000634
  H      2.207024    5.698246   -0.001258
  H     -0.288123    5.698306   -0.002631
  O     -1.865602    3.538057   -0.000916
  H     -2.186505    3.536250    0.903859

----------------------------
CARTESIAN COORDINATES (A.U.)
----------------------------
  NO LB      ZA    FRAG     MASS         X           Y           Z
   0 C     6.0000    0    12.011    0.494693    4.402765    0.000000
   1 C     6.0000    0    12.011    3.131163    4.402765    0.000000
   2 C     6.0000    0    12.011    4.449319    6.685084    0.000000
   3 C     6.0000    0    12.011    3.130944    8.968835   -0.002266
   4 C     6.0000    0    12.011    0.495107    8.968687   -0.003171
   5 C     6.0000    0    12.011   -0.823168    6.685509   -0.001289
   6 H     1.0000    0     1.008   -0.544201    2.603147    0.000850
   7 H     1.0000    0     1.008    4.169583    2.602776    0.002485
   8 H     1.0000    0     1.008    6.527413    6.685235    0.001198
   9 H     1.0000    0     1.008    4.170671   10.768124   -0.002377
  10 H     1.0000    0     1.008   -0.544473   10.768238   -0.004972
  11 O     8.0000    0    15.999   -3.525477    6.685959   -0.001731
  12 H     1.0000    0     1.008   -4.131895    6.682545    1.708046



           ************************************************************
           *        Program running with 16 parallel MPI-processes    *
           *              working on a common directory               *
           ************************************************************
------------------------------------------------------------------------------
                   ___                                                        
                  /   \      - P O W E R E D   B Y -                         
                 /     \                                                     
                 |  |  |   _    _      __       _____    __    __             
                 |  |  |  | |  | |    /  \     |  _  \  |  |  /  |          
                  \  \/   | |  | |   /    \    | | | |  |  | /  /          
                 / \  \   | |__| |  /  /\  \   | |_| |  |  |/  /          
                |  |  |   |  __  | /  /__\  \  |    /   |      \           
                |  |  |   | |  | | |   __   |  |    \   |  |\   \          
                \     /   | |  | | |  |  |  |  | |\  \  |  | \   \       
                 \___/    |_|  |_| |__|  |__|  |_| \__\ |__|  \__/        
                                                                              
                      - O R C A' S   B I G   F R I E N D -                    
                                      &                                       
                       - I N T E G R A L  F E E D E R -                       
                                                                              
 v1 FN, 2020, v2 2021                                                         
------------------------------------------------------------------------------


Reading SHARK input file phenol_efield_z_-0.032.SHARKINP.tmp ... ok
----------------------
SHARK INTEGRAL PACKAGE
----------------------

Number of atoms                             ...     13
Number of basis functions                   ...    257
Number of shells                            ...    135
Maximum angular momentum                    ...      2
Integral batch strategy                     ... SHARK/LIBINT Hybrid
RI-J (if used) integral strategy            ... SPLIT-RIJ (Revised 2003 algorithm where possible)
Printlevel                                  ...      1
Contraction scheme used                     ... PARTIAL GENERAL contraction
Coulomb Range Separation                    ... NOT USED
Exchange Range Separation                   ... NOT USED
Finite Nucleus Model                        ... NOT USED
Auxiliary Coulomb fitting basis             ... NOT available
Auxiliary J/K fitting basis                 ... NOT available
Auxiliary Correlation fitting basis         ... NOT available
Auxiliary 'external' fitting basis          ... NOT available
Integral threshold                          ...     1.000000e-12
Primitive cut-off                           ...     1.000000e-14
Primitive pair pre-selection threshold      ...     1.000000e-14

Calculating pre-screening integrals         ... done (  0.0 sec) Dimension = 135
Calculating pre-screening integrals (ORCA)  ... done (  0.1 sec) Dimension = 93
Organizing shell pair data                  ... done (  0.0 sec)
Shell pair information
Total number of shell pairs                 ...      9180
Shell pairs after pre-screening             ...      8071
Total number of primitive shell pairs       ...     13080
Primitive shell pairs kept                  ...     10795
          la=0 lb=0:   2934 shell pairs
          la=1 lb=0:   2805 shell pairs
          la=1 lb=1:    559 shell pairs
          la=2 lb=0:   1207 shell pairs
          la=2 lb=1:    461 shell pairs
          la=2 lb=2:    105 shell pairs

Calculating one electron integrals          ... done (  0.0 sec)
Calculating Nuclear repulsion               ... done (  0.0 sec) ENN=    268.852435669254 Eh

SHARK setup successfully completed in   0.3 seconds

Maximum memory used throughout the entire GTOINT-calculation: 17.0 MB

An Electric Field will be added: 0.000e+00 0.000e+00 -3.200e-02 au

  ... done adding electric field perturbation



           ************************************************************
           *        Program running with 16 parallel MPI-processes    *
           *              working on a common directory               *
           ************************************************************

Diagonalization of the overlap matrix:
Smallest eigenvalue                        ... 2.604e-06
Time for diagonalization                   ...    0.006 sec
Threshold for overlap eigenvalues          ... 1.000e-08
Number of eigenvalues below threshold      ... 0
Time for construction of square roots      ...    0.015 sec
Total time needed                          ...    0.022 sec

Time for model grid setup =    0.057 sec

Loading Hartree-Fock densities                     ... done
Calculating cut-offs                               ... done
Initializing the effective Hamiltonian             ... done
Setting up the integral package (SHARK)            ... done
Starting the Coulomb interaction                   ... done (   0.0 sec)
Reading the grid                                   ... done
Mapping shells                                     ... done
Starting the XC term evaluation                    ... done (   0.0 sec)
Transforming the Hamiltonian                       ... done (   0.0 sec)
Diagonalizing the Hamiltonian                      ... done (   0.0 sec)
Back transforming the eigenvectors                 ... done (   0.0 sec)
Now organizing SCF variables                       ... done
--------------
SCF ITERATIONS
--------------
ITER       Energy         Delta-E        Max-DP      RMS-DP      [F,P]     Damp
               ***  Starting incremental Fock matrix formation  ***
  0   -305.3542320920   0.000000000000 0.87001349  0.02082192  0.1962353 0.7000
  1   -305.4385671963  -0.084335104320 0.64451900  0.01550504  0.1238613 0.7000
                               ***Turning on DIIS***
  2   -305.4909271219  -0.052359925647 1.50272386  0.03589062  0.0730959 0.0000
  3   -305.0534229698   0.437504152103 0.03476638  0.00155394  0.0336751 0.0000
  4   -305.5555199222  -0.502096952348 0.05542821  0.00108473  0.0048639 0.0000
                      *** Initiating the SOSCF procedure ***
                           *** Shutting down DIIS ***
                      *** Re-Reading the Fockian *** 
                      *** Removing any level shift *** 
ITER      Energy       Delta-E        Grad      Rot      Max-DP    RMS-DP
  5   -305.58715243  -0.0316325065  0.001170  0.001170  0.014535  0.000394
               *** Restarting incremental Fock matrix formation ***
  6   -305.60073171  -0.0135792772  0.000420  0.001030  0.016344  0.000294
  7   -305.60074288  -0.0000111761  0.000193  0.000984  0.013692  0.000247
  8   -305.60074581  -0.0000029325  0.000074  0.000136  0.001986  0.000035
  9   -305.60074609  -0.0000002765  0.000037  0.000131  0.000898  0.000018
 10   -305.60074617  -0.0000000815  0.000015  0.000076  0.000302  0.000007
 11   -305.60074619  -0.0000000139  0.000009  0.000028  0.000177  0.000004
 12   -305.60074619  -0.0000000027  0.000002  0.000006  0.000067  0.000001
 13   -305.60074619  -0.0000000003  0.000001  0.000001  0.000023  0.000001
                  ***Gradient check signals convergence***
              ***Rediagonalizing the Fockian in SOSCF/NRSCF***

               *****************************************************
               *                     SUCCESS                       *
               *           SCF CONVERGED AFTER  14 CYCLES          *
               *****************************************************

Total Energy       :         -305.60074619 Eh           -8315.81907 eV
  Last Energy change         ...    3.0354e-11  Tolerance :   1.0000e-09
  Last MAX-Density change    ...    6.0100e-06  Tolerance :   1.0000e-08
             **** THE GBW FILE WAS UPDATED (phenol_efield_z_-0.032.gbw) ****
             **** DENSITY phenol_efield_z_-0.032.scfp WAS UPDATED ****
             **** ENERGY FILE WAS UPDATED (phenol_efield_z_-0.032.en.tmp) ****
             **** THE GBW FILE WAS UPDATED (phenol_efield_z_-0.032.gbw) ****
             **** DENSITY phenol_efield_z_-0.032.scfp WAS UPDATED ****
----------------
ORBITAL ENERGIES
----------------

  NO   OCC          E(Eh)            E(eV) 
   0   2.0000     -20.600749      -560.5749 
   1   2.0000     -11.315749      -307.9172 
   2   2.0000     -11.258807      -306.3677 
   3   2.0000     -11.258711      -306.3651 
   4   2.0000     -11.254100      -306.2396 
   5   2.0000     -11.254089      -306.2393 
   6   2.0000     -11.252481      -306.1956 
   7   2.0000      -1.387356       -37.7519 
   8   2.0000      -1.160214       -31.5710 
   9   2.0000      -1.029473       -28.0134 
  10   2.0000      -1.016629       -27.6639 
  11   2.0000      -0.842521       -22.9262 
  12   2.0000      -0.831535       -22.6272 
  13   2.0000      -0.733176       -19.9507 
  14   2.0000      -0.684137       -18.6163 
  15   2.0000      -0.654237       -17.8027 
  16   2.0000      -0.633395       -17.2356 
  17   2.0000      -0.596516       -16.2320 
  18   2.0000      -0.594637       -16.1809 
  19   2.0000      -0.528734       -14.3876 
  20   2.0000      -0.521338       -14.1863 
  21   2.0000      -0.503469       -13.7001 
  22   2.0000      -0.483692       -13.1619 
  23   2.0000      -0.348503        -9.4833 
  24   2.0000      -0.339954        -9.2506 
  25   0.0000      -0.102397        -2.7864 
  26   0.0000      -0.030513        -0.8303 
  27   0.0000      -0.022657        -0.6165 
  28   0.0000       0.004648         0.1265 
  29   0.0000       0.006692         0.1821 
  30   0.0000       0.035106         0.9553 
  31   0.0000       0.049856         1.3566 
  32   0.0000       0.081766         2.2250 
  33   0.0000       0.086521         2.3544 
  34   0.0000       0.087787         2.3888 
  35   0.0000       0.100818         2.7434 
  36   0.0000       0.110591         3.0093 
  37   0.0000       0.143261         3.8983 
  38   0.0000       0.147489         4.0134 
  39   0.0000       0.150285         4.0895 
  40   0.0000       0.153208         4.1690 
  41   0.0000       0.153566         4.1787 
  42   0.0000       0.169544         4.6135 
  43   0.0000       0.181179         4.9301 
  44   0.0000       0.183962         5.0059 
  45   0.0000       0.194179         5.2839 
  46   0.0000       0.203975         5.5505 
  47   0.0000       0.220086         5.9888 
  48   0.0000       0.221286         6.0215 
  49   0.0000       0.244268         6.6469 
  50   0.0000       0.251344         6.8394 
  51   0.0000       0.265831         7.2336 
  52   0.0000       0.267487         7.2787 
  53   0.0000       0.299716         8.1557 
  54   0.0000       0.300501         8.1770 
  55   0.0000       0.306943         8.3523 
  56   0.0000       0.322132         8.7656 
  57   0.0000       0.330320         8.9885 
  58   0.0000       0.335846         9.1388 
  59   0.0000       0.339341         9.2339 
  60   0.0000       0.348505         9.4833 
  61   0.0000       0.350773         9.5450 
  62   0.0000       0.361534         9.8378 
  63   0.0000       0.370391        10.0788 
  64   0.0000       0.371469        10.1082 
  65   0.0000       0.377619        10.2755 
  66   0.0000       0.380505        10.3541 
  67   0.0000       0.399242        10.8639 
  68   0.0000       0.408445        11.1144 
  69   0.0000       0.412411        11.2223 
  70   0.0000       0.417839        11.3700 
  71   0.0000       0.430723        11.7206 
  72   0.0000       0.437766        11.9122 
  73   0.0000       0.447184        12.1685 
  74   0.0000       0.470932        12.8147 
  75   0.0000       0.474613        12.9149 
  76   0.0000       0.502179        13.6650 
  77   0.0000       0.503657        13.7052 
  78   0.0000       0.514450        13.9989 
  79   0.0000       0.529348        14.4043 
  80   0.0000       0.530718        14.4416 
  81   0.0000       0.556676        15.1479 
  82   0.0000       0.574902        15.6439 
  83   0.0000       0.581614        15.8265 
  84   0.0000       0.591403        16.0929 
  85   0.0000       0.592867        16.1327 
  86   0.0000       0.608923        16.5696 
  87   0.0000       0.616173        16.7669 
  88   0.0000       0.623031        16.9535 
  89   0.0000       0.648493        17.6464 
  90   0.0000       0.656768        17.8716 
  91   0.0000       0.662685        18.0326 
  92   0.0000       0.678844        18.4723 
  93   0.0000       0.681918        18.5559 
  94   0.0000       0.686174        18.6718 
  95   0.0000       0.688349        18.7309 
  96   0.0000       0.706253        19.2181 
  97   0.0000       0.723936        19.6993 
  98   0.0000       0.741322        20.1724 
  99   0.0000       0.751699        20.4548 
 100   0.0000       0.756676        20.5902 
 101   0.0000       0.758463        20.6388 
 102   0.0000       0.760881        20.7046 
 103   0.0000       0.771009        20.9802 
 104   0.0000       0.793975        21.6052 
 105   0.0000       0.838227        22.8093 
 106   0.0000       0.855591        23.2818 
 107   0.0000       0.858563        23.3627 
 108   0.0000       0.863346        23.4928 
 109   0.0000       0.871743        23.7213 
 110   0.0000       0.907843        24.7037 
 111   0.0000       0.918338        24.9892 
 112   0.0000       0.923284        25.1238 
 113   0.0000       0.925590        25.1866 
 114   0.0000       0.931016        25.3342 
 115   0.0000       0.941784        25.6272 
 116   0.0000       0.943395        25.6711 
 117   0.0000       0.959302        26.1039 
 118   0.0000       0.973232        26.4830 
 119   0.0000       0.979018        26.6404 
 120   0.0000       0.992441        27.0057 
 121   0.0000       1.018321        27.7099 
 122   0.0000       1.028343        27.9826 
 123   0.0000       1.040383        28.3103 
 124   0.0000       1.068752        29.0822 
 125   0.0000       1.091606        29.7041 
 126   0.0000       1.142345        31.0848 
 127   0.0000       1.158554        31.5259 
 128   0.0000       1.169160        31.8145 
 129   0.0000       1.175216        31.9792 
 130   0.0000       1.254018        34.1236 
 131   0.0000       1.285744        34.9869 
 132   0.0000       1.352308        36.7982 
 133   0.0000       1.376364        37.4528 
 134   0.0000       1.410849        38.3911 
 135   0.0000       1.434383        39.0315 
 136   0.0000       1.458316        39.6828 
 137   0.0000       1.475650        40.1545 
 138   0.0000       1.481010        40.3003 
 139   0.0000       1.511662        41.1344 
 140   0.0000       1.526673        41.5429 
 141   0.0000       1.545156        42.0458 
 142   0.0000       1.564838        42.5814 
 143   0.0000       1.582191        43.0536 
 144   0.0000       1.601604        43.5819 
 145   0.0000       1.627537        44.2875 
 146   0.0000       1.631668        44.3999 
 147   0.0000       1.635734        44.5106 
 148   0.0000       1.643290        44.7162 
 149   0.0000       1.656857        45.0854 
 150   0.0000       1.671048        45.4715 
 151   0.0000       1.694741        46.1162 
 152   0.0000       1.699327        46.2411 
 153   0.0000       1.709745        46.5245 
 154   0.0000       1.728945        47.0470 
 155   0.0000       1.764936        48.0264 
 156   0.0000       1.796548        48.8866 
 157   0.0000       1.800114        48.9836 
 158   0.0000       1.865751        50.7697 
 159   0.0000       1.872604        50.9561 
 160   0.0000       1.884125        51.2696 
 161   0.0000       1.884820        51.2886 
 162   0.0000       1.901697        51.7478 
 163   0.0000       1.925728        52.4017 
 164   0.0000       1.938574        52.7513 
 165   0.0000       1.948936        53.0332 
 166   0.0000       1.956774        53.2465 
 167   0.0000       1.974561        53.7305 
 168   0.0000       1.981582        53.9216 
 169   0.0000       2.037329        55.4386 
 170   0.0000       2.049603        55.7725 
 171   0.0000       2.090618        56.8886 
 172   0.0000       2.106435        57.3190 
 173   0.0000       2.122148        57.7466 
 174   0.0000       2.160746        58.7969 
 175   0.0000       2.175112        59.1878 
 176   0.0000       2.193606        59.6911 
 177   0.0000       2.201608        59.9088 
 178   0.0000       2.207566        60.0709 
 179   0.0000       2.240796        60.9752 
 180   0.0000       2.247769        61.1649 
 181   0.0000       2.282377        62.1066 
 182   0.0000       2.315641        63.0118 
 183   0.0000       2.350341        63.9560 
 184   0.0000       2.357631        64.1544 
 185   0.0000       2.369206        64.4694 
 186   0.0000       2.411493        65.6201 
 187   0.0000       2.447254        66.5932 
 188   0.0000       2.456252        66.8380 
 189   0.0000       2.602454        70.8164 
 190   0.0000       2.616521        71.1992 
 191   0.0000       2.660927        72.4075 
 192   0.0000       2.705623        73.6238 
 193   0.0000       2.752356        74.8954 
 194   0.0000       2.759043        75.0774 
 195   0.0000       2.764725        75.2320 
 196   0.0000       2.837444        77.2108 
 197   0.0000       2.893010        78.7228 
 198   0.0000       2.936435        79.9045 
 199   0.0000       2.999376        81.6172 
 200   0.0000       3.046806        82.9078 
 201   0.0000       3.078761        83.7774 
 202   0.0000       3.123362        84.9910 
 203   0.0000       3.196976        86.9941 
 204   0.0000       3.270506        88.9950 
 205   0.0000       3.360904        91.4548 
 206   0.0000       3.506194        95.4084 
 207   0.0000       3.545422        96.4758 
 208   0.0000       3.737109       101.6919 
 209   0.0000       3.764634       102.4409 
 210   0.0000       3.828110       104.1682 
 211   0.0000       3.915641       106.5500 
 212   0.0000       3.993137       108.6588 
 213   0.0000       4.255593       115.8006 
 214   0.0000       4.714395       128.2852 
Total SCF time: 0 days 0 hours 0 min 17 sec 

Maximum memory used throughout the entire SCF-calculation: 231.6 MB

-------------------------   --------------------
FINAL SINGLE POINT ENERGY      -305.600746189395
-------------------------   --------------------


                            ***************************************
                            *     ORCA property calculations      *
                            ***************************************

                                    ---------------------
                                    Active property flags
                                    ---------------------
   (+) Dipole Moment
   (+) Polarizability


------------------------------------------------------------------------------
                       ORCA ELECTRIC PROPERTIES CALCULATION
------------------------------------------------------------------------------

Dipole Moment Calculation                       ... on
Quadrupole Moment Calculation                   ... off
Polarizability Calculation                      ... Analytic (CP-SCF)
GBWName                                         ... phenol_efield_z_-0.032.gbw
Electron density                                ... phenol_efield_z_-0.032.scfp
The origin for moment calculation is the CENTER OF MASS  = ( 0.892295,  6.685629  0.017111)

-------------
DIPOLE MOMENT
-------------
                                X             Y             Z
Electronic contribution:     -1.73439       0.00151      -1.82978
Nuclear contribution   :      2.09690      -0.00184       0.79546
                        -----------------------------------------
Total Dipole Moment    :      0.36250      -0.00033      -1.03432
                        -----------------------------------------
Magnitude (a.u.)       :      1.09600
Magnitude (Debye)      :      2.78582



--------------------
Rotational spectrum 
--------------------
 
Rotational constants in cm-1:     0.187876     0.084795     0.058746 
Rotational constants in MHz :  5632.368735  2542.097443  1761.161239 

 Dipole components along the rotational axes: 
x,y,z [a.u.] :     0.375011    -0.000333    -1.029851 
x,y,z [Debye]:     0.953203    -0.000846    -2.617672 

 
Transforming and storing MO dipole integrals   ... done

                ... starting polarizability calculation

The origin for moment calculation is the CENTER OF MASS  = ( 0.892295,  6.685629  0.017111)
Opening the Dipole integral file               ... (phenol_efield_z_-0.032.dmo.tmp) done
Reading Dipole-MO integrals                    ... done
Solving CP-SCF equations                       ... 

           ************************************************************
           *        Program running with 16 parallel MPI-processes    *
           *              working on a common directory               *
           ************************************************************

------------------------------------------------------------------------------
                           ORCA CP-SCF CALCULATION
------------------------------------------------------------------------------

Input orbitals are from        ... phenol_efield_z_-0.032.gbw
Input Perturbation             ... phenol_efield_z_-0.032.cpv.tmp
Wavefunction output            ... phenol_efield_z_-0.032.cpu.tmp
Perturbation mode              ... Real perturbation (singlet)
Solver                         ... POPLE
Max. number of iterations      ... 64
Convergence tolerance          ... 3.000e-05
Integral handling              ... Direct
Number of perturbations        ... 3
Number of operators            ... 1
Orbital ranges used for CP-SCF:
 Operator 0:  Orbitals   0... 24  to  25...214
Variables per perturbation     ... 4750
Memory available               ... 1992.1 MB
Memory needed per perturbation ...   1.4 MB
Perturbations treated per batch... 3
Number of batches              ... 1
     CP-SCF ITERATION   0:   2.0881e+00 (   2.2 sec   0/  3 done)
     CP-SCF ITERATION   1:   4.6384e-01 (   2.2 sec   0/  3 done)
     CP-SCF ITERATION   2:   1.1435e-01 (   2.2 sec   0/  3 done)
     CP-SCF ITERATION   3:   4.0439e-02 (   2.2 sec   0/  3 done)
     CP-SCF ITERATION   4:   1.1625e-02 (   2.2 sec   0/  3 done)
     CP-SCF ITERATION   5:   4.4688e-03 (   2.2 sec   0/  3 done)
     CP-SCF ITERATION   6:   2.2661e-03 (   2.2 sec   0/  3 done)
     CP-SCF ITERATION   7:   8.9857e-04 (   2.3 sec   0/  3 done)
     CP-SCF ITERATION   8:   3.3272e-04 (   2.3 sec   0/  3 done)
     CP-SCF ITERATION   9:   1.2657e-04 (   2.3 sec   0/  3 done)
     CP-SCF ITERATION  10:   3.6072e-05 (   2.2 sec   2/  3 done)
     CP-SCF ITERATION  11:   1.1981e-05 (   1.5 sec   3/  3 done)
                    *** THE CP-SCF HAS CONVERGED ***
done
Reading CP-SCF coefficients                    ... done
Doing the polarizability tensor                ... done
Cleaning up                                    ... done

-------------------------
THE POLARIZABILITY TENSOR
-------------------------

The raw cartesian tensor (atomic units):
   91.02232      0.00529      0.43079  
    0.00529     85.49497     -0.02660  
    0.43079     -0.02660     55.73777  
diagonalized tensor: 
   55.73248     85.49499     91.02758  

   -0.01221      0.00089      0.99993  
    0.00090     -1.00000      0.00090  
    0.99993      0.00091      0.01221  

Isotropic polarizability :  77.41835


Timings for individual modules:

Sum of individual times         ...       51.527 sec (=   0.859 min)
GTO integral calculation        ...        2.863 sec (=   0.048 min)   5.6 %
SCF iterations                  ...       19.694 sec (=   0.328 min)  38.2 %
Solution of CP-SCF eqns.        ...       28.971 sec (=   0.483 min)  56.2 %
                             ****ORCA TERMINATED NORMALLY****
TOTAL RUN TIME: 0 days 0 hours 0 minutes 54 seconds 727 msec
