
                                 *****************
                                 * O   R   C   A *
                                 *****************

                                            #,                                       
                                            ###                                      
                                            ####                                     
                                            #####                                    
                                            ######                                   
                                           ########,                                 
                                     ,,################,,,,,                         
                               ,,#################################,,                 
                          ,,##########################################,,             
                       ,#########################################, ''#####,          
                    ,#############################################,,   '####,        
                  ,##################################################,,,,####,       
                ,###########''''           ''''###############################       
              ,#####''   ,,,,##########,,,,          '''####'''          '####       
            ,##' ,,,,###########################,,,                        '##       
           ' ,,###''''                  '''############,,,                           
         ,,##''                                '''############,,,,        ,,,,,,###''
      ,#''                                            '''#######################'''  
     '                                                          ''''####''''         
             ,#######,   #######,   ,#######,      ##                                
            ,#'     '#,  ##    ##  ,#'     '#,    #''#        ######   ,####,        
            ##       ##  ##   ,#'  ##            #'  '#       #        #'  '#        
            ##       ##  #######   ##           ,######,      #####,   #    #        
            '#,     ,#'  ##    ##  '#,     ,#' ,#      #,         ##   #,  ,#        
             '#######'   ##     ##  '#######'  #'      '#     #####' # '####'        



                  #######################################################
                  #                        -***-                        #
                  #          Department of theory and spectroscopy      #
                  #    Directorship and core code : Frank Neese         #
                  #        Max Planck Institute fuer Kohlenforschung    #
                  #                Kaiser Wilhelm Platz 1               #
                  #                 D-45470 Muelheim/Ruhr               #
                  #                      Germany                        #
                  #                                                     #
                  #                  All rights reserved                #
                  #                        -***-                        #
                  #######################################################


                         Program Version 5.0.4 -  RELEASE  -


 With contributions from (in alphabetic order):
   Daniel Aravena         : Magnetic Suceptibility
   Michael Atanasov       : Ab Initio Ligand Field Theory (pilot matlab implementation)
   Alexander A. Auer      : GIAO ZORA, VPT2 properties, NMR spectrum
   Ute Becker             : Parallelization
   Giovanni Bistoni       : ED, misc. LED, open-shell LED, HFLD
   Martin Brehm           : Molecular dynamics
   Dmytro Bykov           : SCF Hessian
   Vijay G. Chilkuri      : MRCI spin determinant printing, contributions to CSF-ICE
   Dipayan Datta          : RHF DLPNO-CCSD density
   Achintya Kumar Dutta   : EOM-CC, STEOM-CC
   Dmitry Ganyushin       : Spin-Orbit,Spin-Spin,Magnetic field MRCI
   Miquel Garcia          : C-PCM and meta-GGA Hessian, CC/C-PCM, Gaussian charge scheme
   Yang Guo               : DLPNO-NEVPT2, F12-NEVPT2, CIM, IAO-localization
   Andreas Hansen         : Spin unrestricted coupled pair/coupled cluster methods
   Benjamin Helmich-Paris : MC-RPA, TRAH-SCF, COSX integrals
   Lee Huntington         : MR-EOM, pCC
   Robert Izsak           : Overlap fitted RIJCOSX, COSX-SCS-MP3, EOM
   Marcus Kettner         : VPT2
   Christian Kollmar      : KDIIS, OOCD, Brueckner-CCSD(T), CCSD density, CASPT2, CASPT2-K
   Simone Kossmann        : Meta GGA functionals, TD-DFT gradient, OOMP2, MP2 Hessian
   Martin Krupicka        : Initial AUTO-CI
   Lucas Lang             : DCDCAS
   Marvin Lechner         : AUTO-CI (C++ implementation), FIC-MRCC
   Dagmar Lenk            : GEPOL surface, SMD
   Dimitrios Liakos       : Extrapolation schemes; Compound Job, initial MDCI parallelization
   Dimitrios Manganas     : Further ROCIS development; embedding schemes
   Dimitrios Pantazis     : SARC Basis sets
   Anastasios Papadopoulos: AUTO-CI, single reference methods and gradients
   Taras Petrenko         : DFT Hessian,TD-DFT gradient, ASA, ECA, R-Raman, ABS, FL, XAS/XES, NRVS
   Peter Pinski           : DLPNO-MP2, DLPNO-MP2 Gradient
   Christoph Reimann      : Effective Core Potentials
   Marius Retegan         : Local ZFS, SOC
   Christoph Riplinger    : Optimizer, TS searches, QM/MM, DLPNO-CCSD(T), (RO)-DLPNO pert. Triples
   Tobias Risthaus        : Range-separated hybrids, TD-DFT gradient, RPA, STAB
   Michael Roemelt        : Original ROCIS implementation
   Masaaki Saitow         : Open-shell DLPNO-CCSD energy and density
   Barbara Sandhoefer     : DKH picture change effects
   Avijit Sen             : IP-ROCIS
   Kantharuban Sivalingam : CASSCF convergence, NEVPT2, FIC-MRCI
   Bernardo de Souza      : ESD, SOC TD-DFT
   Georgi Stoychev        : AutoAux, RI-MP2 NMR, DLPNO-MP2 response
   Willem Van den Heuvel  : Paramagnetic NMR
   Boris Wezisla          : Elementary symmetry handling
   Frank Wennmohs         : Technical directorship


 We gratefully acknowledge several colleagues who have allowed us to
 interface, adapt or use parts of their codes:
   Stefan Grimme, W. Hujo, H. Kruse, P. Pracht,  : VdW corrections, initial TS optimization,
                  C. Bannwarth, S. Ehlert          DFT functionals, gCP, sTDA/sTD-DF
   Ed Valeev, F. Pavosevic, A. Kumar             : LibInt (2-el integral package), F12 methods
   Garnet Chan, S. Sharma, J. Yang, R. Olivares  : DMRG
   Ulf Ekstrom                                   : XCFun DFT Library
   Mihaly Kallay                                 : mrcc  (arbitrary order and MRCC methods)
   Jiri Pittner, Ondrej Demel                    : Mk-CCSD
   Frank Weinhold                                : gennbo (NPA and NBO analysis)
   Christopher J. Cramer and Donald G. Truhlar   : smd solvation model
   Lars Goerigk                                  : TD-DFT with DH, B97 family of functionals
   V. Asgeirsson, H. Jonsson                     : NEB implementation
   FAccTs GmbH                                   : IRC, NEB, NEB-TS, DLPNO-Multilevel, CI-OPT
                                                   MM, QMMM, 2- and 3-layer-ONIOM, Crystal-QMMM,
                                                   LR-CPCM, SF, NACMEs, symmetry and pop. for TD-DFT,
                                                   nearIR, NL-DFT gradient (VV10), updates on ESD,
                                                   ML-optimized integration grids
   S Lehtola, MJT Oliveira, MAL Marques          : LibXC Library
   Liviu Ungur et al                             : ANISO software


 Your calculation uses the libint2 library for the computation of 2-el integrals
 For citations please refer to: http://libint.valeyev.net

 Your ORCA version has been built with support for libXC version: 5.1.0
 For citations please refer to: https://tddft.org/programs/libxc/

 This ORCA versions uses:
   CBLAS   interface :  Fast vector & matrix operations
   LAPACKE interface :  Fast linear algebra routines
   SCALAPACK package :  Parallel linear algebra routines
   Shared memory     :  Shared parallel matrices
   BLAS/LAPACK       :  OpenBLAS 0.3.15  USE64BITINT DYNAMIC_ARCH NO_AFFINITY SkylakeX SINGLE_THREADED
        Core in use  :  SkylakeX
   Copyright (c) 2011-2014, The OpenBLAS Project


================================================================================

----- Orbital basis set information -----
Your calculation utilizes the basis: aug-cc-pVDZ 
    H, B-Ne : Obtained from the ccRepo (grant-hill.group.shef.ac.uk/ccrepo) Feb. 2017
              R. A. Kendall, T. H. Dunning, Jr., R. J. Harrison, J. Chem. Phys. 96, 6796 (1992)
         He : Obtained from the ccRepo (grant-hill.group.shef.ac.uk/ccrepo) Feb. 2017
              D. E. Woon, T. H. Dunning, Jr., J. Chem. Phys. 100, 2975 (1994)
  Li-Be, Na : Obtained from the ccRepo (grant-hill.group.shef.ac.uk/ccrepo) Feb. 2017
              B. P. Prascher, D. E. Woon, K. A. Peterson, T. H. Dunning, Jr., A. K. Wilson, Theor. Chem. Acc. 128, 69 (2011)
         Mg : Obtained from the Peterson Research Group Website (tyr0.chem.wsu.edu/~kipeters) Feb. 2017
              B. P. Prascher, D. E. Woon, K. A. Peterson, T. H. Dunning, Jr., A. K. Wilson, Theor. Chem. Acc. 128, 69 (2011)
      Al-Ar : Obtained from the ccRepo (grant-hill.group.shef.ac.uk/ccrepo) Feb. 2017
              D. E. Woon, T. H. Dunning, Jr., J. Chem. Phys. 98, 1358 (1993)
      Sc-Zn : Obtained from the ccRepo (grant-hill.group.shef.ac.uk/ccrepo) Feb. 2017
              N. B. Balabanov, K. A. Peterson, J. Chem. Phys. 123, 064107 (2005)
              N. B. Balabanov, K. A. Peterson, J. Chem. Phys. 125, 074110 (2006)
      Ga-Kr : Obtained from the ccRepo (grant-hill.group.shef.ac.uk/ccrepo) Feb. 2017
              A. K. Wilson, D. E. Woon, K. A. Peterson, T. H. Dunning, Jr., J. Chem. Phys. 110, 7667 (1999)

================================================================================
                                        WARNINGS
                       Please study these warnings very carefully!
================================================================================


INFO   : the flag for use of the SHARK integral package has been found!

================================================================================
                                       INPUT FILE
================================================================================
NAME = phenol_efield_z_-0.008.inp
|  1> ! hf aug-cc-pVDZ
|  2> ! MiniPrint VeryTightSCF
|  3> %pal
|  4>  nprocs 16
|  5> end
|  6> %MaxCore 2000
|  7> %scf
|  8>  maxiter=200
|  9>  efield 0.0 , 0.0 , -0.008
| 10> end
| 11> %elprop
| 12>   polar 1
| 13> end
| 14> * xyz 0 1
| 15>  C                  0.26178012    2.32984290    0.00000000
| 16>  C                  1.65694012    2.32984290    0.00000000
| 17>  C                  2.35447812    3.53759390    0.00000000
| 18>  C                  1.65682412    4.74610290   -0.00119900
| 19>  C                  0.26199912    4.74602490   -0.00167800
| 20>  C                 -0.43560188    3.53781890   -0.00068200
| 21>  H                 -0.28797888    1.37752590    0.00045000
| 22>  H                  2.20644812    1.37732990    0.00131500
| 23>  H                  3.45415812    3.53767390    0.00063400
| 24>  H                  2.20702412    5.69824590   -0.00125800
| 25>  H                 -0.28812288    5.69830590   -0.00263100
| 26>  O                 -1.86560184    3.53805688   -0.00091608
| 27>  H                 -2.18650479    3.53625036    0.90385905
| 28> *
| 29> 
| 30>                          ****END OF INPUT****
================================================================================

                       ****************************
                       * Single Point Calculation *
                       ****************************

---------------------------------
CARTESIAN COORDINATES (ANGSTROEM)
---------------------------------
  C      0.261780    2.329843    0.000000
  C      1.656940    2.329843    0.000000
  C      2.354478    3.537594    0.000000
  C      1.656824    4.746103   -0.001199
  C      0.261999    4.746025   -0.001678
  C     -0.435602    3.537819   -0.000682
  H     -0.287979    1.377526    0.000450
  H      2.206448    1.377330    0.001315
  H      3.454158    3.537674    0.000634
  H      2.207024    5.698246   -0.001258
  H     -0.288123    5.698306   -0.002631
  O     -1.865602    3.538057   -0.000916
  H     -2.186505    3.536250    0.903859

----------------------------
CARTESIAN COORDINATES (A.U.)
----------------------------
  NO LB      ZA    FRAG     MASS         X           Y           Z
   0 C     6.0000    0    12.011    0.494693    4.402765    0.000000
   1 C     6.0000    0    12.011    3.131163    4.402765    0.000000
   2 C     6.0000    0    12.011    4.449319    6.685084    0.000000
   3 C     6.0000    0    12.011    3.130944    8.968835   -0.002266
   4 C     6.0000    0    12.011    0.495107    8.968687   -0.003171
   5 C     6.0000    0    12.011   -0.823168    6.685509   -0.001289
   6 H     1.0000    0     1.008   -0.544201    2.603147    0.000850
   7 H     1.0000    0     1.008    4.169583    2.602776    0.002485
   8 H     1.0000    0     1.008    6.527413    6.685235    0.001198
   9 H     1.0000    0     1.008    4.170671   10.768124   -0.002377
  10 H     1.0000    0     1.008   -0.544473   10.768238   -0.004972
  11 O     8.0000    0    15.999   -3.525477    6.685959   -0.001731
  12 H     1.0000    0     1.008   -4.131895    6.682545    1.708046



           ************************************************************
           *        Program running with 16 parallel MPI-processes    *
           *              working on a common directory               *
           ************************************************************
------------------------------------------------------------------------------
                   ___                                                        
                  /   \      - P O W E R E D   B Y -                         
                 /     \                                                     
                 |  |  |   _    _      __       _____    __    __             
                 |  |  |  | |  | |    /  \     |  _  \  |  |  /  |          
                  \  \/   | |  | |   /    \    | | | |  |  | /  /          
                 / \  \   | |__| |  /  /\  \   | |_| |  |  |/  /          
                |  |  |   |  __  | /  /__\  \  |    /   |      \           
                |  |  |   | |  | | |   __   |  |    \   |  |\   \          
                \     /   | |  | | |  |  |  |  | |\  \  |  | \   \       
                 \___/    |_|  |_| |__|  |__|  |_| \__\ |__|  \__/        
                                                                              
                      - O R C A' S   B I G   F R I E N D -                    
                                      &                                       
                       - I N T E G R A L  F E E D E R -                       
                                                                              
 v1 FN, 2020, v2 2021                                                         
------------------------------------------------------------------------------


Reading SHARK input file phenol_efield_z_-0.008.SHARKINP.tmp ... ok
----------------------
SHARK INTEGRAL PACKAGE
----------------------

Number of atoms                             ...     13
Number of basis functions                   ...    257
Number of shells                            ...    135
Maximum angular momentum                    ...      2
Integral batch strategy                     ... SHARK/LIBINT Hybrid
RI-J (if used) integral strategy            ... SPLIT-RIJ (Revised 2003 algorithm where possible)
Printlevel                                  ...      1
Contraction scheme used                     ... PARTIAL GENERAL contraction
Coulomb Range Separation                    ... NOT USED
Exchange Range Separation                   ... NOT USED
Finite Nucleus Model                        ... NOT USED
Auxiliary Coulomb fitting basis             ... NOT available
Auxiliary J/K fitting basis                 ... NOT available
Auxiliary Correlation fitting basis         ... NOT available
Auxiliary 'external' fitting basis          ... NOT available
Integral threshold                          ...     1.000000e-12
Primitive cut-off                           ...     1.000000e-14
Primitive pair pre-selection threshold      ...     1.000000e-14

Calculating pre-screening integrals         ... done (  0.0 sec) Dimension = 135
Calculating pre-screening integrals (ORCA)  ... done (  0.1 sec) Dimension = 93
Organizing shell pair data                  ... done (  0.0 sec)
Shell pair information
Total number of shell pairs                 ...      9180
Shell pairs after pre-screening             ...      8071
Total number of primitive shell pairs       ...     13080
Primitive shell pairs kept                  ...     10795
          la=0 lb=0:   2934 shell pairs
          la=1 lb=0:   2805 shell pairs
          la=1 lb=1:    559 shell pairs
          la=2 lb=0:   1207 shell pairs
          la=2 lb=1:    461 shell pairs
          la=2 lb=2:    105 shell pairs

Calculating one electron integrals          ... done (  0.0 sec)
Calculating Nuclear repulsion               ... done (  0.0 sec) ENN=    268.852435669254 Eh

SHARK setup successfully completed in   0.3 seconds

Maximum memory used throughout the entire GTOINT-calculation: 17.0 MB

An Electric Field will be added: 0.000e+00 0.000e+00 -8.000e-03 au

  ... done adding electric field perturbation



           ************************************************************
           *        Program running with 16 parallel MPI-processes    *
           *              working on a common directory               *
           ************************************************************

Diagonalization of the overlap matrix:
Smallest eigenvalue                        ... 2.604e-06
Time for diagonalization                   ...    0.006 sec
Threshold for overlap eigenvalues          ... 1.000e-08
Number of eigenvalues below threshold      ... 0
Time for construction of square roots      ...    0.015 sec
Total time needed                          ...    0.022 sec

Time for model grid setup =    0.058 sec

Loading Hartree-Fock densities                     ... done
Calculating cut-offs                               ... done
Initializing the effective Hamiltonian             ... done
Setting up the integral package (SHARK)            ... done
Starting the Coulomb interaction                   ... done (   0.0 sec)
Reading the grid                                   ... done
Mapping shells                                     ... done
Starting the XC term evaluation                    ... done (   0.0 sec)
Transforming the Hamiltonian                       ... done (   0.0 sec)
Diagonalizing the Hamiltonian                      ... done (   0.0 sec)
Back transforming the eigenvectors                 ... done (   0.0 sec)
Now organizing SCF variables                       ... done
--------------
SCF ITERATIONS
--------------
ITER       Energy         Delta-E        Max-DP      RMS-DP      [F,P]     Damp
               ***  Starting incremental Fock matrix formation  ***
  0   -305.3383237781   0.000000000000 0.91284943  0.02199122  0.2161338 0.7000
  1   -305.4253961347  -0.087072356582 0.67316917  0.01642281  0.1354352 0.7000
                               ***Turning on DIIS***
  2   -305.4790615031  -0.053665368422 1.55955347  0.03792121  0.0790380 0.0000
  3   -305.0078201615   0.471241341654 0.03672875  0.00153036  0.0381994 0.0000
  4   -305.5440634242  -0.536243262732 0.05789644  0.00106889  0.0050808 0.0000
                      *** Initiating the SOSCF procedure ***
                           *** Shutting down DIIS ***
                      *** Re-Reading the Fockian *** 
                      *** Removing any level shift *** 
ITER      Energy       Delta-E        Grad      Rot      Max-DP    RMS-DP
  5   -305.57607208  -0.0320086523  0.001115  0.001115  0.017284  0.000357
               *** Restarting incremental Fock matrix formation ***
  6   -305.59092265  -0.0148505722  0.000374  0.000845  0.002101  0.000067
  7   -305.59093120  -0.0000085471  0.000201  0.000498  0.003033  0.000075
  8   -305.59093363  -0.0000024369  0.000068  0.000183  0.000944  0.000025
  9   -305.59093386  -0.0000002225  0.000043  0.000234  0.000608  0.000016
 10   -305.59093396  -0.0000001009  0.000009  0.000022  0.000401  0.000009
 11   -305.59093396  -0.0000000077  0.000006  0.000015  0.000101  0.000002
 12   -305.59093397  -0.0000000014  0.000002  0.000004  0.000060  0.000001
                  ***Gradient check signals convergence***
              ***Rediagonalizing the Fockian in SOSCF/NRSCF***

               *****************************************************
               *                     SUCCESS                       *
               *           SCF CONVERGED AFTER  13 CYCLES          *
               *****************************************************

Total Energy       :         -305.59093397 Eh           -8315.55207 eV
  Last Energy change         ...   -1.3222e-10  Tolerance :   1.0000e-09
  Last MAX-Density change    ...    1.8274e-05  Tolerance :   1.0000e-08
             **** THE GBW FILE WAS UPDATED (phenol_efield_z_-0.008.gbw) ****
             **** DENSITY phenol_efield_z_-0.008.scfp WAS UPDATED ****
             **** ENERGY FILE WAS UPDATED (phenol_efield_z_-0.008.en.tmp) ****
             **** THE GBW FILE WAS UPDATED (phenol_efield_z_-0.008.gbw) ****
             **** DENSITY phenol_efield_z_-0.008.scfp WAS UPDATED ****
----------------
ORBITAL ENERGIES
----------------

  NO   OCC          E(Eh)            E(eV) 
   0   2.0000     -20.590493      -560.2958 
   1   2.0000     -11.308224      -307.7124 
   2   2.0000     -11.251896      -306.1797 
   3   2.0000     -11.251789      -306.1767 
   4   2.0000     -11.247206      -306.0520 
   5   2.0000     -11.247184      -306.0514 
   6   2.0000     -11.245735      -306.0120 
   7   2.0000      -1.378477       -37.5103 
   8   2.0000      -1.154119       -31.4052 
   9   2.0000      -1.023783       -27.8586 
  10   2.0000      -1.010553       -27.4985 
  11   2.0000      -0.836960       -22.7748 
  12   2.0000      -0.825291       -22.4573 
  13   2.0000      -0.726240       -19.7620 
  14   2.0000      -0.678099       -18.4520 
  15   2.0000      -0.647997       -17.6329 
  16   2.0000      -0.628711       -17.1081 
  17   2.0000      -0.591181       -16.0869 
  18   2.0000      -0.589378       -16.0378 
  19   2.0000      -0.522654       -14.2221 
  20   2.0000      -0.516113       -14.0441 
  21   2.0000      -0.498978       -13.5779 
  22   2.0000      -0.477278       -12.9874 
  23   2.0000      -0.343930        -9.3588 
  24   2.0000      -0.335200        -9.1213 
  25   0.0000       0.007945         0.2162 
  26   0.0000       0.033126         0.9014 
  27   0.0000       0.037724         1.0265 
  28   0.0000       0.052364         1.4249 
  29   0.0000       0.054232         1.4757 
  30   0.0000       0.075403         2.0518 
  31   0.0000       0.102031         2.7764 
  32   0.0000       0.107456         2.9240 
  33   0.0000       0.113775         3.0960 
  34   0.0000       0.115441         3.1413 
  35   0.0000       0.121514         3.3066 
  36   0.0000       0.127349         3.4653 
  37   0.0000       0.145580         3.9614 
  38   0.0000       0.150431         4.0934 
  39   0.0000       0.155334         4.2268 
  40   0.0000       0.155524         4.2320 
  41   0.0000       0.160770         4.3748 
  42   0.0000       0.162659         4.4262 
  43   0.0000       0.172632         4.6975 
  44   0.0000       0.178009         4.8439 
  45   0.0000       0.183193         4.9849 
  46   0.0000       0.187857         5.1118 
  47   0.0000       0.187912         5.1133 
  48   0.0000       0.197298         5.3688 
  49   0.0000       0.198079         5.3900 
  50   0.0000       0.200324         5.4511 
  51   0.0000       0.237730         6.4690 
  52   0.0000       0.262843         7.1523 
  53   0.0000       0.280844         7.6422 
  54   0.0000       0.296408         8.0657 
  55   0.0000       0.298205         8.1146 
  56   0.0000       0.305058         8.3010 
  57   0.0000       0.307970         8.3803 
  58   0.0000       0.323219         8.7952 
  59   0.0000       0.347121         9.4456 
  60   0.0000       0.351219         9.5572 
  61   0.0000       0.353801         9.6274 
  62   0.0000       0.356168         9.6918 
  63   0.0000       0.366272         9.9668 
  64   0.0000       0.371030        10.0962 
  65   0.0000       0.374821        10.1994 
  66   0.0000       0.376743        10.2517 
  67   0.0000       0.397974        10.8294 
  68   0.0000       0.402567        10.9544 
  69   0.0000       0.411022        11.1845 
  70   0.0000       0.412277        11.2186 
  71   0.0000       0.428781        11.6677 
  72   0.0000       0.434520        11.8239 
  73   0.0000       0.438823        11.9410 
  74   0.0000       0.466264        12.6877 
  75   0.0000       0.482902        13.1404 
  76   0.0000       0.500541        13.6204 
  77   0.0000       0.501633        13.6501 
  78   0.0000       0.517631        14.0855 
  79   0.0000       0.524099        14.2615 
  80   0.0000       0.532313        14.4850 
  81   0.0000       0.556911        15.1543 
  82   0.0000       0.577444        15.7131 
  83   0.0000       0.581577        15.8255 
  84   0.0000       0.589611        16.0441 
  85   0.0000       0.596199        16.2234 
  86   0.0000       0.606647        16.5077 
  87   0.0000       0.618395        16.8274 
  88   0.0000       0.629592        17.1321 
  89   0.0000       0.648918        17.6580 
  90   0.0000       0.655391        17.8341 
  91   0.0000       0.665058        18.0972 
  92   0.0000       0.674700        18.3595 
  93   0.0000       0.684326        18.6215 
  94   0.0000       0.687462        18.7068 
  95   0.0000       0.688591        18.7375 
  96   0.0000       0.705696        19.2030 
  97   0.0000       0.724073        19.7030 
  98   0.0000       0.740694        20.1553 
  99   0.0000       0.752486        20.4762 
 100   0.0000       0.754248        20.5241 
 101   0.0000       0.762610        20.7517 
 102   0.0000       0.762977        20.7617 
 103   0.0000       0.770910        20.9775 
 104   0.0000       0.799299        21.7500 
 105   0.0000       0.841697        22.9037 
 106   0.0000       0.857952        23.3460 
 107   0.0000       0.864430        23.5223 
 108   0.0000       0.867570        23.6078 
 109   0.0000       0.874596        23.7990 
 110   0.0000       0.912638        24.8341 
 111   0.0000       0.919126        25.0107 
 112   0.0000       0.924798        25.1650 
 113   0.0000       0.932225        25.3671 
 114   0.0000       0.932681        25.3795 
 115   0.0000       0.939387        25.5620 
 116   0.0000       0.944274        25.6950 
 117   0.0000       0.959506        26.1095 
 118   0.0000       0.976501        26.5719 
 119   0.0000       0.980946        26.6929 
 120   0.0000       0.996529        27.1169 
 121   0.0000       1.032413        28.0934 
 122   0.0000       1.032656        28.1000 
 123   0.0000       1.042233        28.3606 
 124   0.0000       1.068728        29.0816 
 125   0.0000       1.091449        29.6998 
 126   0.0000       1.145121        31.1603 
 127   0.0000       1.161013        31.5928 
 128   0.0000       1.170590        31.8534 
 129   0.0000       1.176524        32.0149 
 130   0.0000       1.249530        34.0014 
 131   0.0000       1.291841        35.1528 
 132   0.0000       1.355582        36.8873 
 133   0.0000       1.378858        37.5206 
 134   0.0000       1.416082        38.5335 
 135   0.0000       1.438325        39.1388 
 136   0.0000       1.462149        39.7871 
 137   0.0000       1.476651        40.1817 
 138   0.0000       1.484399        40.3926 
 139   0.0000       1.518404        41.3179 
 140   0.0000       1.530131        41.6370 
 141   0.0000       1.549502        42.1641 
 142   0.0000       1.567234        42.6466 
 143   0.0000       1.586945        43.1830 
 144   0.0000       1.604566        43.6625 
 145   0.0000       1.631269        44.3891 
 146   0.0000       1.635446        44.5027 
 147   0.0000       1.639079        44.6016 
 148   0.0000       1.647948        44.8430 
 149   0.0000       1.659443        45.1557 
 150   0.0000       1.672127        45.5009 
 151   0.0000       1.701763        46.3073 
 152   0.0000       1.703824        46.3634 
 153   0.0000       1.713314        46.6217 
 154   0.0000       1.731747        47.1232 
 155   0.0000       1.767311        48.0910 
 156   0.0000       1.799375        48.9635 
 157   0.0000       1.799981        48.9800 
 158   0.0000       1.866381        50.7868 
 159   0.0000       1.876528        51.0629 
 160   0.0000       1.888125        51.3785 
 161   0.0000       1.888426        51.3867 
 162   0.0000       1.904877        51.8343 
 163   0.0000       1.930047        52.5192 
 164   0.0000       1.942454        52.8569 
 165   0.0000       1.951586        53.1054 
 166   0.0000       1.960281        53.3420 
 167   0.0000       1.977646        53.8145 
 168   0.0000       1.985619        54.0314 
 169   0.0000       2.042972        55.5921 
 170   0.0000       2.052900        55.8623 
 171   0.0000       2.094151        56.9847 
 172   0.0000       2.110594        57.4322 
 173   0.0000       2.130640        57.9777 
 174   0.0000       2.164664        58.9035 
 175   0.0000       2.179042        59.2947 
 176   0.0000       2.197383        59.7938 
 177   0.0000       2.206065        60.0301 
 178   0.0000       2.213508        60.2326 
 179   0.0000       2.245993        61.1166 
 180   0.0000       2.254960        61.3606 
 181   0.0000       2.286420        62.2166 
 182   0.0000       2.319451        63.1155 
 183   0.0000       2.354272        64.0630 
 184   0.0000       2.362381        64.2837 
 185   0.0000       2.375914        64.6519 
 186   0.0000       2.416932        65.7681 
 187   0.0000       2.452101        66.7251 
 188   0.0000       2.465405        67.0871 
 189   0.0000       2.619899        71.2911 
 190   0.0000       2.622030        71.3491 
 191   0.0000       2.666466        72.5582 
 192   0.0000       2.709664        73.7337 
 193   0.0000       2.756536        75.0092 
 194   0.0000       2.763605        75.2015 
 195   0.0000       2.768751        75.3415 
 196   0.0000       2.847558        77.4860 
 197   0.0000       2.897418        78.8427 
 198   0.0000       2.940517        80.0155 
 199   0.0000       3.005332        81.7793 
 200   0.0000       3.051471        83.0348 
 201   0.0000       3.084158        83.9242 
 202   0.0000       3.128160        85.1216 
 203   0.0000       3.202159        87.1352 
 204   0.0000       3.275368        89.1273 
 205   0.0000       3.365065        91.5681 
 206   0.0000       3.510716        95.5314 
 207   0.0000       3.549986        96.6000 
 208   0.0000       3.741756       101.8184 
 209   0.0000       3.770934       102.6123 
 210   0.0000       3.833304       104.3095 
 211   0.0000       3.922175       106.7278 
 212   0.0000       3.999526       108.8326 
 213   0.0000       4.264580       116.0451 
 214   0.0000       4.717803       128.3779 
Total SCF time: 0 days 0 hours 0 min 15 sec 

Maximum memory used throughout the entire SCF-calculation: 231.6 MB

-------------------------   --------------------
FINAL SINGLE POINT ENERGY      -305.590933965324
-------------------------   --------------------


                            ***************************************
                            *     ORCA property calculations      *
                            ***************************************

                                    ---------------------
                                    Active property flags
                                    ---------------------
   (+) Dipole Moment
   (+) Polarizability


------------------------------------------------------------------------------
                       ORCA ELECTRIC PROPERTIES CALCULATION
------------------------------------------------------------------------------

Dipole Moment Calculation                       ... on
Quadrupole Moment Calculation                   ... off
Polarizability Calculation                      ... Analytic (CP-SCF)
GBWName                                         ... phenol_efield_z_-0.008.gbw
Electron density                                ... phenol_efield_z_-0.008.scfp
The origin for moment calculation is the CENTER OF MASS  = ( 0.892295,  6.685629  0.017111)

-------------
DIPOLE MOMENT
-------------
                                X             Y             Z
Electronic contribution:     -1.74626       0.00093      -0.60758
Nuclear contribution   :      2.09690      -0.00184       0.79546
                        -----------------------------------------
Total Dipole Moment    :      0.35064      -0.00091       0.18788
                        -----------------------------------------
Magnitude (a.u.)       :      0.39781
Magnitude (Debye)      :      1.01115



--------------------
Rotational spectrum 
--------------------
 
Rotational constants in cm-1:     0.187876     0.084795     0.058746 
Rotational constants in MHz :  5632.368735  2542.097443  1761.161239 

 Dipole components along the rotational axes: 
x,y,z [a.u.] :     0.348341     0.001023     0.192119 
x,y,z [Debye]:     0.885413     0.002600     0.488329 

 
Transforming and storing MO dipole integrals   ... done

                ... starting polarizability calculation

The origin for moment calculation is the CENTER OF MASS  = ( 0.892295,  6.685629  0.017111)
Opening the Dipole integral file               ... (phenol_efield_z_-0.008.dmo.tmp) done
Reading Dipole-MO integrals                    ... done
Solving CP-SCF equations                       ... 

           ************************************************************
           *        Program running with 16 parallel MPI-processes    *
           *              working on a common directory               *
           ************************************************************

------------------------------------------------------------------------------
                           ORCA CP-SCF CALCULATION
------------------------------------------------------------------------------

Input orbitals are from        ... phenol_efield_z_-0.008.gbw
Input Perturbation             ... phenol_efield_z_-0.008.cpv.tmp
Wavefunction output            ... phenol_efield_z_-0.008.cpu.tmp
Perturbation mode              ... Real perturbation (singlet)
Solver                         ... POPLE
Max. number of iterations      ... 64
Convergence tolerance          ... 3.000e-05
Integral handling              ... Direct
Number of perturbations        ... 3
Number of operators            ... 1
Orbital ranges used for CP-SCF:
 Operator 0:  Orbitals   0... 24  to  25...214
Variables per perturbation     ... 4750
Memory available               ... 1992.1 MB
Memory needed per perturbation ...   1.4 MB
Perturbations treated per batch... 3
Number of batches              ... 1
     CP-SCF ITERATION   0:   2.0074e+00 (   2.2 sec   0/  3 done)
     CP-SCF ITERATION   1:   4.1958e-01 (   2.2 sec   0/  3 done)
     CP-SCF ITERATION   2:   9.0458e-02 (   2.2 sec   0/  3 done)
     CP-SCF ITERATION   3:   3.9779e-02 (   2.2 sec   0/  3 done)
     CP-SCF ITERATION   4:   1.1568e-02 (   2.2 sec   0/  3 done)
     CP-SCF ITERATION   5:   4.3466e-03 (   2.2 sec   0/  3 done)
     CP-SCF ITERATION   6:   2.2643e-03 (   2.2 sec   0/  3 done)
     CP-SCF ITERATION   7:   9.1696e-04 (   2.2 sec   0/  3 done)
     CP-SCF ITERATION   8:   3.2761e-04 (   2.3 sec   0/  3 done)
     CP-SCF ITERATION   9:   9.1836e-05 (   2.2 sec   2/  3 done)
     CP-SCF ITERATION  10:   2.3023e-05 (   1.5 sec   3/  3 done)
                    *** THE CP-SCF HAS CONVERGED ***
done
Reading CP-SCF coefficients                    ... done
Doing the polarizability tensor                ... done
Cleaning up                                    ... done

-------------------------
THE POLARIZABILITY TENSOR
-------------------------

The raw cartesian tensor (atomic units):
   88.26913      0.00325     -1.13716  
    0.00325     82.05327     -0.02338  
   -1.13716     -0.02338     48.24835  
diagonalized tensor: 
   48.21605     82.05328     88.30142  

    0.02838     -0.00065     -0.99960  
    0.00069      1.00000     -0.00063  
    0.99960     -0.00067      0.02838  

Isotropic polarizability :  72.85692


Timings for individual modules:

Sum of individual times         ...       47.961 sec (=   0.799 min)
GTO integral calculation        ...        2.892 sec (=   0.048 min)   6.0 %
SCF iterations                  ...       18.486 sec (=   0.308 min)  38.5 %
Solution of CP-SCF eqns.        ...       26.583 sec (=   0.443 min)  55.4 %
                             ****ORCA TERMINATED NORMALLY****
TOTAL RUN TIME: 0 days 0 hours 0 minutes 51 seconds 154 msec
