
                                 *****************
                                 * O   R   C   A *
                                 *****************

                                            #,                                       
                                            ###                                      
                                            ####                                     
                                            #####                                    
                                            ######                                   
                                           ########,                                 
                                     ,,################,,,,,                         
                               ,,#################################,,                 
                          ,,##########################################,,             
                       ,#########################################, ''#####,          
                    ,#############################################,,   '####,        
                  ,##################################################,,,,####,       
                ,###########''''           ''''###############################       
              ,#####''   ,,,,##########,,,,          '''####'''          '####       
            ,##' ,,,,###########################,,,                        '##       
           ' ,,###''''                  '''############,,,                           
         ,,##''                                '''############,,,,        ,,,,,,###''
      ,#''                                            '''#######################'''  
     '                                                          ''''####''''         
             ,#######,   #######,   ,#######,      ##                                
            ,#'     '#,  ##    ##  ,#'     '#,    #''#        ######   ,####,        
            ##       ##  ##   ,#'  ##            #'  '#       #        #'  '#        
            ##       ##  #######   ##           ,######,      #####,   #    #        
            '#,     ,#'  ##    ##  '#,     ,#' ,#      #,         ##   #,  ,#        
             '#######'   ##     ##  '#######'  #'      '#     #####' # '####'        



                  #######################################################
                  #                        -***-                        #
                  #          Department of theory and spectroscopy      #
                  #    Directorship and core code : Frank Neese         #
                  #        Max Planck Institute fuer Kohlenforschung    #
                  #                Kaiser Wilhelm Platz 1               #
                  #                 D-45470 Muelheim/Ruhr               #
                  #                      Germany                        #
                  #                                                     #
                  #                  All rights reserved                #
                  #                        -***-                        #
                  #######################################################


                         Program Version 5.0.4 -  RELEASE  -


 With contributions from (in alphabetic order):
   Daniel Aravena         : Magnetic Suceptibility
   Michael Atanasov       : Ab Initio Ligand Field Theory (pilot matlab implementation)
   Alexander A. Auer      : GIAO ZORA, VPT2 properties, NMR spectrum
   Ute Becker             : Parallelization
   Giovanni Bistoni       : ED, misc. LED, open-shell LED, HFLD
   Martin Brehm           : Molecular dynamics
   Dmytro Bykov           : SCF Hessian
   Vijay G. Chilkuri      : MRCI spin determinant printing, contributions to CSF-ICE
   Dipayan Datta          : RHF DLPNO-CCSD density
   Achintya Kumar Dutta   : EOM-CC, STEOM-CC
   Dmitry Ganyushin       : Spin-Orbit,Spin-Spin,Magnetic field MRCI
   Miquel Garcia          : C-PCM and meta-GGA Hessian, CC/C-PCM, Gaussian charge scheme
   Yang Guo               : DLPNO-NEVPT2, F12-NEVPT2, CIM, IAO-localization
   Andreas Hansen         : Spin unrestricted coupled pair/coupled cluster methods
   Benjamin Helmich-Paris : MC-RPA, TRAH-SCF, COSX integrals
   Lee Huntington         : MR-EOM, pCC
   Robert Izsak           : Overlap fitted RIJCOSX, COSX-SCS-MP3, EOM
   Marcus Kettner         : VPT2
   Christian Kollmar      : KDIIS, OOCD, Brueckner-CCSD(T), CCSD density, CASPT2, CASPT2-K
   Simone Kossmann        : Meta GGA functionals, TD-DFT gradient, OOMP2, MP2 Hessian
   Martin Krupicka        : Initial AUTO-CI
   Lucas Lang             : DCDCAS
   Marvin Lechner         : AUTO-CI (C++ implementation), FIC-MRCC
   Dagmar Lenk            : GEPOL surface, SMD
   Dimitrios Liakos       : Extrapolation schemes; Compound Job, initial MDCI parallelization
   Dimitrios Manganas     : Further ROCIS development; embedding schemes
   Dimitrios Pantazis     : SARC Basis sets
   Anastasios Papadopoulos: AUTO-CI, single reference methods and gradients
   Taras Petrenko         : DFT Hessian,TD-DFT gradient, ASA, ECA, R-Raman, ABS, FL, XAS/XES, NRVS
   Peter Pinski           : DLPNO-MP2, DLPNO-MP2 Gradient
   Christoph Reimann      : Effective Core Potentials
   Marius Retegan         : Local ZFS, SOC
   Christoph Riplinger    : Optimizer, TS searches, QM/MM, DLPNO-CCSD(T), (RO)-DLPNO pert. Triples
   Tobias Risthaus        : Range-separated hybrids, TD-DFT gradient, RPA, STAB
   Michael Roemelt        : Original ROCIS implementation
   Masaaki Saitow         : Open-shell DLPNO-CCSD energy and density
   Barbara Sandhoefer     : DKH picture change effects
   Avijit Sen             : IP-ROCIS
   Kantharuban Sivalingam : CASSCF convergence, NEVPT2, FIC-MRCI
   Bernardo de Souza      : ESD, SOC TD-DFT
   Georgi Stoychev        : AutoAux, RI-MP2 NMR, DLPNO-MP2 response
   Willem Van den Heuvel  : Paramagnetic NMR
   Boris Wezisla          : Elementary symmetry handling
   Frank Wennmohs         : Technical directorship


 We gratefully acknowledge several colleagues who have allowed us to
 interface, adapt or use parts of their codes:
   Stefan Grimme, W. Hujo, H. Kruse, P. Pracht,  : VdW corrections, initial TS optimization,
                  C. Bannwarth, S. Ehlert          DFT functionals, gCP, sTDA/sTD-DF
   Ed Valeev, F. Pavosevic, A. Kumar             : LibInt (2-el integral package), F12 methods
   Garnet Chan, S. Sharma, J. Yang, R. Olivares  : DMRG
   Ulf Ekstrom                                   : XCFun DFT Library
   Mihaly Kallay                                 : mrcc  (arbitrary order and MRCC methods)
   Jiri Pittner, Ondrej Demel                    : Mk-CCSD
   Frank Weinhold                                : gennbo (NPA and NBO analysis)
   Christopher J. Cramer and Donald G. Truhlar   : smd solvation model
   Lars Goerigk                                  : TD-DFT with DH, B97 family of functionals
   V. Asgeirsson, H. Jonsson                     : NEB implementation
   FAccTs GmbH                                   : IRC, NEB, NEB-TS, DLPNO-Multilevel, CI-OPT
                                                   MM, QMMM, 2- and 3-layer-ONIOM, Crystal-QMMM,
                                                   LR-CPCM, SF, NACMEs, symmetry and pop. for TD-DFT,
                                                   nearIR, NL-DFT gradient (VV10), updates on ESD,
                                                   ML-optimized integration grids
   S Lehtola, MJT Oliveira, MAL Marques          : LibXC Library
   Liviu Ungur et al                             : ANISO software


 Your calculation uses the libint2 library for the computation of 2-el integrals
 For citations please refer to: http://libint.valeyev.net

 Your ORCA version has been built with support for libXC version: 5.1.0
 For citations please refer to: https://tddft.org/programs/libxc/

 This ORCA versions uses:
   CBLAS   interface :  Fast vector & matrix operations
   LAPACKE interface :  Fast linear algebra routines
   SCALAPACK package :  Parallel linear algebra routines
   Shared memory     :  Shared parallel matrices
   BLAS/LAPACK       :  OpenBLAS 0.3.15  USE64BITINT DYNAMIC_ARCH NO_AFFINITY SkylakeX SINGLE_THREADED
        Core in use  :  SkylakeX
   Copyright (c) 2011-2014, The OpenBLAS Project


================================================================================

----- Orbital basis set information -----
Your calculation utilizes the basis: aug-cc-pVDZ 
    H, B-Ne : Obtained from the ccRepo (grant-hill.group.shef.ac.uk/ccrepo) Feb. 2017
              R. A. Kendall, T. H. Dunning, Jr., R. J. Harrison, J. Chem. Phys. 96, 6796 (1992)
         He : Obtained from the ccRepo (grant-hill.group.shef.ac.uk/ccrepo) Feb. 2017
              D. E. Woon, T. H. Dunning, Jr., J. Chem. Phys. 100, 2975 (1994)
  Li-Be, Na : Obtained from the ccRepo (grant-hill.group.shef.ac.uk/ccrepo) Feb. 2017
              B. P. Prascher, D. E. Woon, K. A. Peterson, T. H. Dunning, Jr., A. K. Wilson, Theor. Chem. Acc. 128, 69 (2011)
         Mg : Obtained from the Peterson Research Group Website (tyr0.chem.wsu.edu/~kipeters) Feb. 2017
              B. P. Prascher, D. E. Woon, K. A. Peterson, T. H. Dunning, Jr., A. K. Wilson, Theor. Chem. Acc. 128, 69 (2011)
      Al-Ar : Obtained from the ccRepo (grant-hill.group.shef.ac.uk/ccrepo) Feb. 2017
              D. E. Woon, T. H. Dunning, Jr., J. Chem. Phys. 98, 1358 (1993)
      Sc-Zn : Obtained from the ccRepo (grant-hill.group.shef.ac.uk/ccrepo) Feb. 2017
              N. B. Balabanov, K. A. Peterson, J. Chem. Phys. 123, 064107 (2005)
              N. B. Balabanov, K. A. Peterson, J. Chem. Phys. 125, 074110 (2006)
      Ga-Kr : Obtained from the ccRepo (grant-hill.group.shef.ac.uk/ccrepo) Feb. 2017
              A. K. Wilson, D. E. Woon, K. A. Peterson, T. H. Dunning, Jr., J. Chem. Phys. 110, 7667 (1999)

================================================================================
                                        WARNINGS
                       Please study these warnings very carefully!
================================================================================


INFO   : the flag for use of the SHARK integral package has been found!

================================================================================
                                       INPUT FILE
================================================================================
NAME = phenol_efield_z_0.032.inp
|  1> ! hf aug-cc-pVDZ
|  2> ! MiniPrint VeryTightSCF
|  3> %pal
|  4>  nprocs 16
|  5> end
|  6> %MaxCore 2000
|  7> %scf
|  8>  maxiter=200
|  9>  efield 0.0 , 0.0 , 0.032
| 10> end
| 11> %elprop
| 12>   polar 1
| 13> end
| 14> * xyz 0 1
| 15>  C                  0.26178012    2.32984290    0.00000000
| 16>  C                  1.65694012    2.32984290    0.00000000
| 17>  C                  2.35447812    3.53759390    0.00000000
| 18>  C                  1.65682412    4.74610290   -0.00119900
| 19>  C                  0.26199912    4.74602490   -0.00167800
| 20>  C                 -0.43560188    3.53781890   -0.00068200
| 21>  H                 -0.28797888    1.37752590    0.00045000
| 22>  H                  2.20644812    1.37732990    0.00131500
| 23>  H                  3.45415812    3.53767390    0.00063400
| 24>  H                  2.20702412    5.69824590   -0.00125800
| 25>  H                 -0.28812288    5.69830590   -0.00263100
| 26>  O                 -1.86560184    3.53805688   -0.00091608
| 27>  H                 -2.18650479    3.53625036    0.90385905
| 28> *
| 29> 
| 30>                          ****END OF INPUT****
================================================================================

                       ****************************
                       * Single Point Calculation *
                       ****************************

---------------------------------
CARTESIAN COORDINATES (ANGSTROEM)
---------------------------------
  C      0.261780    2.329843    0.000000
  C      1.656940    2.329843    0.000000
  C      2.354478    3.537594    0.000000
  C      1.656824    4.746103   -0.001199
  C      0.261999    4.746025   -0.001678
  C     -0.435602    3.537819   -0.000682
  H     -0.287979    1.377526    0.000450
  H      2.206448    1.377330    0.001315
  H      3.454158    3.537674    0.000634
  H      2.207024    5.698246   -0.001258
  H     -0.288123    5.698306   -0.002631
  O     -1.865602    3.538057   -0.000916
  H     -2.186505    3.536250    0.903859

----------------------------
CARTESIAN COORDINATES (A.U.)
----------------------------
  NO LB      ZA    FRAG     MASS         X           Y           Z
   0 C     6.0000    0    12.011    0.494693    4.402765    0.000000
   1 C     6.0000    0    12.011    3.131163    4.402765    0.000000
   2 C     6.0000    0    12.011    4.449319    6.685084    0.000000
   3 C     6.0000    0    12.011    3.130944    8.968835   -0.002266
   4 C     6.0000    0    12.011    0.495107    8.968687   -0.003171
   5 C     6.0000    0    12.011   -0.823168    6.685509   -0.001289
   6 H     1.0000    0     1.008   -0.544201    2.603147    0.000850
   7 H     1.0000    0     1.008    4.169583    2.602776    0.002485
   8 H     1.0000    0     1.008    6.527413    6.685235    0.001198
   9 H     1.0000    0     1.008    4.170671   10.768124   -0.002377
  10 H     1.0000    0     1.008   -0.544473   10.768238   -0.004972
  11 O     8.0000    0    15.999   -3.525477    6.685959   -0.001731
  12 H     1.0000    0     1.008   -4.131895    6.682545    1.708046



           ************************************************************
           *        Program running with 16 parallel MPI-processes    *
           *              working on a common directory               *
           ************************************************************
------------------------------------------------------------------------------
                   ___                                                        
                  /   \      - P O W E R E D   B Y -                         
                 /     \                                                     
                 |  |  |   _    _      __       _____    __    __             
                 |  |  |  | |  | |    /  \     |  _  \  |  |  /  |          
                  \  \/   | |  | |   /    \    | | | |  |  | /  /          
                 / \  \   | |__| |  /  /\  \   | |_| |  |  |/  /          
                |  |  |   |  __  | /  /__\  \  |    /   |      \           
                |  |  |   | |  | | |   __   |  |    \   |  |\   \          
                \     /   | |  | | |  |  |  |  | |\  \  |  | \   \       
                 \___/    |_|  |_| |__|  |__|  |_| \__\ |__|  \__/        
                                                                              
                      - O R C A' S   B I G   F R I E N D -                    
                                      &                                       
                       - I N T E G R A L  F E E D E R -                       
                                                                              
 v1 FN, 2020, v2 2021                                                         
------------------------------------------------------------------------------


Reading SHARK input file phenol_efield_z_0.032.SHARKINP.tmp ... ok
----------------------
SHARK INTEGRAL PACKAGE
----------------------

Number of atoms                             ...     13
Number of basis functions                   ...    257
Number of shells                            ...    135
Maximum angular momentum                    ...      2
Integral batch strategy                     ... SHARK/LIBINT Hybrid
RI-J (if used) integral strategy            ... SPLIT-RIJ (Revised 2003 algorithm where possible)
Printlevel                                  ...      1
Contraction scheme used                     ... PARTIAL GENERAL contraction
Coulomb Range Separation                    ... NOT USED
Exchange Range Separation                   ... NOT USED
Finite Nucleus Model                        ... NOT USED
Auxiliary Coulomb fitting basis             ... NOT available
Auxiliary J/K fitting basis                 ... NOT available
Auxiliary Correlation fitting basis         ... NOT available
Auxiliary 'external' fitting basis          ... NOT available
Integral threshold                          ...     1.000000e-12
Primitive cut-off                           ...     1.000000e-14
Primitive pair pre-selection threshold      ...     1.000000e-14

Calculating pre-screening integrals         ... done (  0.0 sec) Dimension = 135
Calculating pre-screening integrals (ORCA)  ... done (  0.1 sec) Dimension = 93
Organizing shell pair data                  ... done (  0.0 sec)
Shell pair information
Total number of shell pairs                 ...      9180
Shell pairs after pre-screening             ...      8071
Total number of primitive shell pairs       ...     13080
Primitive shell pairs kept                  ...     10795
          la=0 lb=0:   2934 shell pairs
          la=1 lb=0:   2805 shell pairs
          la=1 lb=1:    559 shell pairs
          la=2 lb=0:   1207 shell pairs
          la=2 lb=1:    461 shell pairs
          la=2 lb=2:    105 shell pairs

Calculating one electron integrals          ... done (  0.0 sec)
Calculating Nuclear repulsion               ... done (  0.0 sec) ENN=    268.852435669254 Eh

SHARK setup successfully completed in   0.3 seconds

Maximum memory used throughout the entire GTOINT-calculation: 17.0 MB

An Electric Field will be added: 0.000e+00 0.000e+00 3.200e-02 au

  ... done adding electric field perturbation



           ************************************************************
           *        Program running with 16 parallel MPI-processes    *
           *              working on a common directory               *
           ************************************************************

Diagonalization of the overlap matrix:
Smallest eigenvalue                        ... 2.604e-06
Time for diagonalization                   ...    0.006 sec
Threshold for overlap eigenvalues          ... 1.000e-08
Number of eigenvalues below threshold      ... 0
Time for construction of square roots      ...    0.015 sec
Total time needed                          ...    0.021 sec

Time for model grid setup =    0.058 sec

Loading Hartree-Fock densities                     ... done
Calculating cut-offs                               ... done
Initializing the effective Hamiltonian             ... done
Setting up the integral package (SHARK)            ... done
Starting the Coulomb interaction                   ... done (   0.0 sec)
Reading the grid                                   ... done
Mapping shells                                     ... done
Starting the XC term evaluation                    ... done (   0.0 sec)
Transforming the Hamiltonian                       ... done (   0.0 sec)
Diagonalizing the Hamiltonian                      ... done (   0.0 sec)
Back transforming the eigenvectors                 ... done (   0.0 sec)
Now organizing SCF variables                       ... done
--------------
SCF ITERATIONS
--------------
ITER       Energy         Delta-E        Max-DP      RMS-DP      [F,P]     Damp
               ***  Starting incremental Fock matrix formation  ***
  0   -305.3695699102   0.000000000000 0.91752269  0.02249548  0.2338323 0.7000
  1   -305.4619661276  -0.092396217350 0.67489319  0.01677676  0.1453818 0.7000
                               ***Turning on DIIS***
  2   -305.5188554342  -0.056889306593 1.55807859  0.03873062  0.0872689 0.0000
  3   -305.0601884076   0.458667026615 0.03534709  0.00156744  0.0427208 0.0000
  4   -305.5881214105  -0.527933002963 0.05533911  0.00108261  0.0050153 0.0000
  5   -305.6229570426  -0.034835632075 0.01543778  0.00039430  0.0037859 0.0000
                      *** Initiating the SOSCF procedure ***
                           *** Shutting down DIIS ***
                      *** Re-Reading the Fockian *** 
                      *** Removing any level shift *** 
ITER      Energy       Delta-E        Grad      Rot      Max-DP    RMS-DP
  6   -305.63451185  -0.0115548064  0.000427  0.000427  0.007554  0.000159
               *** Restarting incremental Fock matrix formation ***
  7   -305.63726653  -0.0027546844  0.000221  0.000671  0.008252  0.000163
  8   -305.63726932  -0.0000027831  0.000096  0.000573  0.006701  0.000135
  9   -305.63727013  -0.0000008185  0.000037  0.000072  0.000629  0.000015
 10   -305.63727022  -0.0000000816  0.000016  0.000044  0.000633  0.000012
 11   -305.63727024  -0.0000000217  0.000009  0.000052  0.000316  0.000007
 12   -305.63727024  -0.0000000066  0.000002  0.000008  0.000079  0.000001
 13   -305.63727025  -0.0000000003  0.000001  0.000002  0.000049  0.000001
                  ***Gradient check signals convergence***
              ***Rediagonalizing the Fockian in SOSCF/NRSCF***

               *****************************************************
               *                     SUCCESS                       *
               *           SCF CONVERGED AFTER  14 CYCLES          *
               *****************************************************

Total Energy       :         -305.63727025 Eh           -8316.81294 eV
  Last Energy change         ...   -1.5916e-11  Tolerance :   1.0000e-09
  Last MAX-Density change    ...    7.2935e-06  Tolerance :   1.0000e-08
             **** THE GBW FILE WAS UPDATED (phenol_efield_z_0.032.gbw) ****
             **** DENSITY phenol_efield_z_0.032.scfp WAS UPDATED ****
             **** ENERGY FILE WAS UPDATED (phenol_efield_z_0.032.en.tmp) ****
             **** THE GBW FILE WAS UPDATED (phenol_efield_z_0.032.gbw) ****
             **** DENSITY phenol_efield_z_0.032.scfp WAS UPDATED ****
----------------
ORBITAL ENERGIES
----------------

  NO   OCC          E(Eh)            E(eV) 
   0   2.0000     -20.585998      -560.1735 
   1   2.0000     -11.313019      -307.8429 
   2   2.0000     -11.258523      -306.3600 
   3   2.0000     -11.258393      -306.3565 
   4   2.0000     -11.253171      -306.2144 
   5   2.0000     -11.253114      -306.2128 
   6   2.0000     -11.252273      -306.1899 
   7   2.0000      -1.374971       -37.4149 
   8   2.0000      -1.159316       -31.5466 
   9   2.0000      -1.029093       -28.0030 
  10   2.0000      -1.015059       -27.6212 
  11   2.0000      -0.841867       -22.9084 
  12   2.0000      -0.828759       -22.5517 
  13   2.0000      -0.727489       -19.7960 
  14   2.0000      -0.680293       -18.5117 
  15   2.0000      -0.652631       -17.7590 
  16   2.0000      -0.632820       -17.2199 
  17   2.0000      -0.596281       -16.2256 
  18   2.0000      -0.592894       -16.1335 
  19   2.0000      -0.525294       -14.2940 
  20   2.0000      -0.521019       -14.1777 
  21   2.0000      -0.503017       -13.6878 
  22   2.0000      -0.479112       -13.0373 
  23   2.0000      -0.348536        -9.4842 
  24   2.0000      -0.339387        -9.2352 
  25   0.0000      -0.056387        -1.5344 
  26   0.0000      -0.024050        -0.6544 
  27   0.0000      -0.019309        -0.5254 
  28   0.0000       0.010367         0.2821 
  29   0.0000       0.013022         0.3543 
  30   0.0000       0.049792         1.3549 
  31   0.0000       0.078591         2.1386 
  32   0.0000       0.081338         2.2133 
  33   0.0000       0.088797         2.4163 
  34   0.0000       0.101203         2.7539 
  35   0.0000       0.111523         3.0347 
  36   0.0000       0.123998         3.3742 
  37   0.0000       0.142400         3.8749 
  38   0.0000       0.148888         4.0514 
  39   0.0000       0.149821         4.0768 
  40   0.0000       0.152229         4.1424 
  41   0.0000       0.152974         4.1626 
  42   0.0000       0.159451         4.3389 
  43   0.0000       0.178715         4.8631 
  44   0.0000       0.183206         4.9853 
  45   0.0000       0.195183         5.3112 
  46   0.0000       0.199716         5.4345 
  47   0.0000       0.209224         5.6933 
  48   0.0000       0.229897         6.2558 
  49   0.0000       0.237083         6.4513 
  50   0.0000       0.245218         6.6727 
  51   0.0000       0.250689         6.8216 
  52   0.0000       0.263288         7.1644 
  53   0.0000       0.280678         7.6376 
  54   0.0000       0.295387         8.0379 
  55   0.0000       0.305295         8.3075 
  56   0.0000       0.312679         8.5084 
  57   0.0000       0.324131         8.8200 
  58   0.0000       0.326760         8.8916 
  59   0.0000       0.342574         9.3219 
  60   0.0000       0.347451         9.4546 
  61   0.0000       0.350398         9.5348 
  62   0.0000       0.359691         9.7877 
  63   0.0000       0.369657        10.0589 
  64   0.0000       0.376132        10.2351 
  65   0.0000       0.377878        10.2826 
  66   0.0000       0.389837        10.6080 
  67   0.0000       0.399103        10.8601 
  68   0.0000       0.409095        11.1320 
  69   0.0000       0.418443        11.3864 
  70   0.0000       0.429712        11.6931 
  71   0.0000       0.439717        11.9653 
  72   0.0000       0.460731        12.5371 
  73   0.0000       0.461411        12.5556 
  74   0.0000       0.468481        12.7480 
  75   0.0000       0.485000        13.1975 
  76   0.0000       0.500297        13.6138 
  77   0.0000       0.500872        13.6294 
  78   0.0000       0.519296        14.1308 
  79   0.0000       0.530040        14.4231 
  80   0.0000       0.544723        14.8227 
  81   0.0000       0.558260        15.1910 
  82   0.0000       0.577908        15.7257 
  83   0.0000       0.580410        15.7938 
  84   0.0000       0.587424        15.9846 
  85   0.0000       0.598493        16.2858 
  86   0.0000       0.607933        16.5427 
  87   0.0000       0.615598        16.7513 
  88   0.0000       0.638239        17.3674 
  89   0.0000       0.647579        17.6215 
  90   0.0000       0.655099        17.8261 
  91   0.0000       0.665006        18.0957 
  92   0.0000       0.681187        18.5360 
  93   0.0000       0.683004        18.5855 
  94   0.0000       0.690940        18.8014 
  95   0.0000       0.692640        18.8477 
  96   0.0000       0.705769        19.2050 
  97   0.0000       0.723295        19.6819 
  98   0.0000       0.735742        20.0205 
  99   0.0000       0.751029        20.4365 
 100   0.0000       0.751831        20.4584 
 101   0.0000       0.761215        20.7137 
 102   0.0000       0.766302        20.8521 
 103   0.0000       0.769565        20.9409 
 104   0.0000       0.806827        21.9549 
 105   0.0000       0.838037        22.8042 
 106   0.0000       0.855472        23.2786 
 107   0.0000       0.864298        23.5187 
 108   0.0000       0.870950        23.6998 
 109   0.0000       0.872170        23.7330 
 110   0.0000       0.910064        24.7641 
 111   0.0000       0.911616        24.8063 
 112   0.0000       0.918266        24.9873 
 113   0.0000       0.924138        25.1471 
 114   0.0000       0.937544        25.5119 
 115   0.0000       0.938440        25.5363 
 116   0.0000       0.944861        25.7110 
 117   0.0000       0.959314        26.1043 
 118   0.0000       0.976775        26.5794 
 119   0.0000       0.978079        26.6149 
 120   0.0000       0.995701        27.0944 
 121   0.0000       1.033389        28.1199 
 122   0.0000       1.040008        28.3000 
 123   0.0000       1.056189        28.7404 
 124   0.0000       1.067561        29.0498 
 125   0.0000       1.085491        29.5377 
 126   0.0000       1.145753        31.1775 
 127   0.0000       1.159254        31.5449 
 128   0.0000       1.169588        31.8261 
 129   0.0000       1.175716        31.9928 
 130   0.0000       1.237771        33.6815 
 131   0.0000       1.288945        35.0740 
 132   0.0000       1.356560        36.9139 
 133   0.0000       1.375710        37.4350 
 134   0.0000       1.415894        38.5284 
 135   0.0000       1.437458        39.1152 
 136   0.0000       1.457284        39.6547 
 137   0.0000       1.473281        40.0900 
 138   0.0000       1.481116        40.3032 
 139   0.0000       1.520804        41.3832 
 140   0.0000       1.526446        41.5367 
 141   0.0000       1.548258        42.1302 
 142   0.0000       1.561838        42.4998 
 143   0.0000       1.586847        43.1803 
 144   0.0000       1.600717        43.5577 
 145   0.0000       1.628213        44.3059 
 146   0.0000       1.631895        44.4061 
 147   0.0000       1.636433        44.5296 
 148   0.0000       1.646409        44.8011 
 149   0.0000       1.655171        45.0395 
 150   0.0000       1.665791        45.3285 
 151   0.0000       1.700021        46.2599 
 152   0.0000       1.704326        46.3771 
 153   0.0000       1.709885        46.5283 
 154   0.0000       1.727434        47.0059 
 155   0.0000       1.763896        47.9981 
 156   0.0000       1.789236        48.6876 
 157   0.0000       1.796283        48.8793 
 158   0.0000       1.859107        50.5889 
 159   0.0000       1.874147        50.9981 
 160   0.0000       1.884888        51.2904 
 161   0.0000       1.885184        51.2985 
 162   0.0000       1.900912        51.7265 
 163   0.0000       1.928061        52.4652 
 164   0.0000       1.939264        52.7700 
 165   0.0000       1.946545        52.9682 
 166   0.0000       1.956610        53.2421 
 167   0.0000       1.973395        53.6988 
 168   0.0000       1.982329        53.9419 
 169   0.0000       2.041765        55.5592 
 170   0.0000       2.050357        55.7931 
 171   0.0000       2.090548        56.8867 
 172   0.0000       2.107231        57.3407 
 173   0.0000       2.135028        58.0971 
 174   0.0000       2.160787        58.7980 
 175   0.0000       2.174956        59.1836 
 176   0.0000       2.193132        59.6781 
 177   0.0000       2.201757        59.9129 
 178   0.0000       2.210569        60.1526 
 179   0.0000       2.244488        61.0756 
 180   0.0000       2.257075        61.4181 
 181   0.0000       2.283433        62.1354 
 182   0.0000       2.315959        63.0204 
 183   0.0000       2.350086        63.9491 
 184   0.0000       2.358906        64.1891 
 185   0.0000       2.378417        64.7200 
 186   0.0000       2.414137        65.6920 
 187   0.0000       2.448969        66.6398 
 188   0.0000       2.471816        67.2615 
 189   0.0000       2.618113        71.2425 
 190   0.0000       2.639006        71.8110 
 191   0.0000       2.665667        72.5365 
 192   0.0000       2.705238        73.6133 
 193   0.0000       2.752384        74.8962 
 194   0.0000       2.760421        75.1149 
 195   0.0000       2.764563        75.2276 
 196   0.0000       2.855288        77.6963 
 197   0.0000       2.893306        78.7308 
 198   0.0000       2.936499        79.9062 
 199   0.0000       3.004473        81.7559 
 200   0.0000       3.047233        82.9194 
 201   0.0000       3.080201        83.8165 
 202   0.0000       3.123446        84.9933 
 203   0.0000       3.198712        87.0414 
 204   0.0000       3.270994        89.0083 
 205   0.0000       3.363252        91.5187 
 206   0.0000       3.507794        95.4519 
 207   0.0000       3.545316        96.4729 
 208   0.0000       3.737976       101.7155 
 209   0.0000       3.771667       102.6323 
 210   0.0000       3.830810       104.2416 
 211   0.0000       3.922479       106.7361 
 212   0.0000       3.999597       108.8346 
 213   0.0000       4.270154       116.1968 
 214   0.0000       4.713293       128.2552 
Total SCF time: 0 days 0 hours 0 min 17 sec 

Maximum memory used throughout the entire SCF-calculation: 231.6 MB

-------------------------   --------------------
FINAL SINGLE POINT ENERGY      -305.637270245135
-------------------------   --------------------


                            ***************************************
                            *     ORCA property calculations      *
                            ***************************************

                                    ---------------------
                                    Active property flags
                                    ---------------------
   (+) Dipole Moment
   (+) Polarizability


------------------------------------------------------------------------------
                       ORCA ELECTRIC PROPERTIES CALCULATION
------------------------------------------------------------------------------

Dipole Moment Calculation                       ... on
Quadrupole Moment Calculation                   ... off
Polarizability Calculation                      ... Analytic (CP-SCF)
GBWName                                         ... phenol_efield_z_0.032.gbw
Electron density                                ... phenol_efield_z_0.032.scfp
The origin for moment calculation is the CENTER OF MASS  = ( 0.892295,  6.685629  0.017111)

-------------
DIPOLE MOMENT
-------------
                                X             Y             Z
Electronic contribution:     -1.82751      -0.00003       1.37575
Nuclear contribution   :      2.09690      -0.00184       0.79546
                        -----------------------------------------
Total Dipole Moment    :      0.26938      -0.00187       2.17121
                        -----------------------------------------
Magnitude (a.u.)       :      2.18786
Magnitude (Debye)      :      5.56110



--------------------
Rotational spectrum 
--------------------
 
Rotational constants in cm-1:     0.187876     0.084795     0.058746 
Rotational constants in MHz :  5632.368735  2542.097443  1761.161239 

 Dipole components along the rotational axes: 
x,y,z [a.u.] :     0.243055     0.003233     2.174315 
x,y,z [Debye]:     0.617798     0.008218     5.526669 

 
Transforming and storing MO dipole integrals   ... done

                ... starting polarizability calculation

The origin for moment calculation is the CENTER OF MASS  = ( 0.892295,  6.685629  0.017111)
Opening the Dipole integral file               ... (phenol_efield_z_0.032.dmo.tmp) done
Reading Dipole-MO integrals                    ... done
Solving CP-SCF equations                       ... 

           ************************************************************
           *        Program running with 16 parallel MPI-processes    *
           *              working on a common directory               *
           ************************************************************

------------------------------------------------------------------------------
                           ORCA CP-SCF CALCULATION
------------------------------------------------------------------------------

Input orbitals are from        ... phenol_efield_z_0.032.gbw
Input Perturbation             ... phenol_efield_z_0.032.cpv.tmp
Wavefunction output            ... phenol_efield_z_0.032.cpu.tmp
Perturbation mode              ... Real perturbation (singlet)
Solver                         ... POPLE
Max. number of iterations      ... 64
Convergence tolerance          ... 3.000e-05
Integral handling              ... Direct
Number of perturbations        ... 3
Number of operators            ... 1
Orbital ranges used for CP-SCF:
 Operator 0:  Orbitals   0... 24  to  25...214
Variables per perturbation     ... 4750
Memory available               ... 1992.1 MB
Memory needed per perturbation ...   1.4 MB
Perturbations treated per batch... 3
Number of batches              ... 1
     CP-SCF ITERATION   0:   2.0801e+00 (   2.2 sec   0/  3 done)
     CP-SCF ITERATION   1:   4.5542e-01 (   2.2 sec   0/  3 done)
     CP-SCF ITERATION   2:   1.1115e-01 (   2.2 sec   0/  3 done)
     CP-SCF ITERATION   3:   4.1524e-02 (   2.2 sec   0/  3 done)
     CP-SCF ITERATION   4:   1.1130e-02 (   2.2 sec   0/  3 done)
     CP-SCF ITERATION   5:   4.2935e-03 (   2.2 sec   0/  3 done)
     CP-SCF ITERATION   6:   1.9328e-03 (   2.2 sec   0/  3 done)
     CP-SCF ITERATION   7:   7.9725e-04 (   2.2 sec   0/  3 done)
     CP-SCF ITERATION   8:   2.9587e-04 (   2.2 sec   0/  3 done)
     CP-SCF ITERATION   9:   9.8352e-05 (   2.2 sec   0/  3 done)
     CP-SCF ITERATION  10:   2.5725e-05 (   2.2 sec   3/  3 done)
                    *** THE CP-SCF HAS CONVERGED ***
done
Reading CP-SCF coefficients                    ... done
Doing the polarizability tensor                ... done
Cleaning up                                    ... done

-------------------------
THE POLARIZABILITY TENSOR
-------------------------

The raw cartesian tensor (atomic units):
   90.85627      0.00296     -3.43314  
    0.00296     85.30704     -0.02677  
   -3.43314     -0.02677     55.29377  
diagonalized tensor: 
   54.96535     85.30706     91.18467  

    0.09522     -0.00101     -0.99546  
    0.00087      1.00000     -0.00094  
    0.99546     -0.00078      0.09522  

Isotropic polarizability :  77.15236


Timings for individual modules:

Sum of individual times         ...       49.697 sec (=   0.828 min)
GTO integral calculation        ...        2.892 sec (=   0.048 min)   5.8 %
SCF iterations                  ...       19.947 sec (=   0.332 min)  40.1 %
Solution of CP-SCF eqns.        ...       26.858 sec (=   0.448 min)  54.0 %
                             ****ORCA TERMINATED NORMALLY****
TOTAL RUN TIME: 0 days 0 hours 0 minutes 52 seconds 878 msec
