
                                 *****************
                                 * O   R   C   A *
                                 *****************

                                            #,                                       
                                            ###                                      
                                            ####                                     
                                            #####                                    
                                            ######                                   
                                           ########,                                 
                                     ,,################,,,,,                         
                               ,,#################################,,                 
                          ,,##########################################,,             
                       ,#########################################, ''#####,          
                    ,#############################################,,   '####,        
                  ,##################################################,,,,####,       
                ,###########''''           ''''###############################       
              ,#####''   ,,,,##########,,,,          '''####'''          '####       
            ,##' ,,,,###########################,,,                        '##       
           ' ,,###''''                  '''############,,,                           
         ,,##''                                '''############,,,,        ,,,,,,###''
      ,#''                                            '''#######################'''  
     '                                                          ''''####''''         
             ,#######,   #######,   ,#######,      ##                                
            ,#'     '#,  ##    ##  ,#'     '#,    #''#        ######   ,####,        
            ##       ##  ##   ,#'  ##            #'  '#       #        #'  '#        
            ##       ##  #######   ##           ,######,      #####,   #    #        
            '#,     ,#'  ##    ##  '#,     ,#' ,#      #,         ##   #,  ,#        
             '#######'   ##     ##  '#######'  #'      '#     #####' # '####'        



                  #######################################################
                  #                        -***-                        #
                  #          Department of theory and spectroscopy      #
                  #    Directorship and core code : Frank Neese         #
                  #        Max Planck Institute fuer Kohlenforschung    #
                  #                Kaiser Wilhelm Platz 1               #
                  #                 D-45470 Muelheim/Ruhr               #
                  #                      Germany                        #
                  #                                                     #
                  #                  All rights reserved                #
                  #                        -***-                        #
                  #######################################################


                         Program Version 5.0.4 -  RELEASE  -


 With contributions from (in alphabetic order):
   Daniel Aravena         : Magnetic Suceptibility
   Michael Atanasov       : Ab Initio Ligand Field Theory (pilot matlab implementation)
   Alexander A. Auer      : GIAO ZORA, VPT2 properties, NMR spectrum
   Ute Becker             : Parallelization
   Giovanni Bistoni       : ED, misc. LED, open-shell LED, HFLD
   Martin Brehm           : Molecular dynamics
   Dmytro Bykov           : SCF Hessian
   Vijay G. Chilkuri      : MRCI spin determinant printing, contributions to CSF-ICE
   Dipayan Datta          : RHF DLPNO-CCSD density
   Achintya Kumar Dutta   : EOM-CC, STEOM-CC
   Dmitry Ganyushin       : Spin-Orbit,Spin-Spin,Magnetic field MRCI
   Miquel Garcia          : C-PCM and meta-GGA Hessian, CC/C-PCM, Gaussian charge scheme
   Yang Guo               : DLPNO-NEVPT2, F12-NEVPT2, CIM, IAO-localization
   Andreas Hansen         : Spin unrestricted coupled pair/coupled cluster methods
   Benjamin Helmich-Paris : MC-RPA, TRAH-SCF, COSX integrals
   Lee Huntington         : MR-EOM, pCC
   Robert Izsak           : Overlap fitted RIJCOSX, COSX-SCS-MP3, EOM
   Marcus Kettner         : VPT2
   Christian Kollmar      : KDIIS, OOCD, Brueckner-CCSD(T), CCSD density, CASPT2, CASPT2-K
   Simone Kossmann        : Meta GGA functionals, TD-DFT gradient, OOMP2, MP2 Hessian
   Martin Krupicka        : Initial AUTO-CI
   Lucas Lang             : DCDCAS
   Marvin Lechner         : AUTO-CI (C++ implementation), FIC-MRCC
   Dagmar Lenk            : GEPOL surface, SMD
   Dimitrios Liakos       : Extrapolation schemes; Compound Job, initial MDCI parallelization
   Dimitrios Manganas     : Further ROCIS development; embedding schemes
   Dimitrios Pantazis     : SARC Basis sets
   Anastasios Papadopoulos: AUTO-CI, single reference methods and gradients
   Taras Petrenko         : DFT Hessian,TD-DFT gradient, ASA, ECA, R-Raman, ABS, FL, XAS/XES, NRVS
   Peter Pinski           : DLPNO-MP2, DLPNO-MP2 Gradient
   Christoph Reimann      : Effective Core Potentials
   Marius Retegan         : Local ZFS, SOC
   Christoph Riplinger    : Optimizer, TS searches, QM/MM, DLPNO-CCSD(T), (RO)-DLPNO pert. Triples
   Tobias Risthaus        : Range-separated hybrids, TD-DFT gradient, RPA, STAB
   Michael Roemelt        : Original ROCIS implementation
   Masaaki Saitow         : Open-shell DLPNO-CCSD energy and density
   Barbara Sandhoefer     : DKH picture change effects
   Avijit Sen             : IP-ROCIS
   Kantharuban Sivalingam : CASSCF convergence, NEVPT2, FIC-MRCI
   Bernardo de Souza      : ESD, SOC TD-DFT
   Georgi Stoychev        : AutoAux, RI-MP2 NMR, DLPNO-MP2 response
   Willem Van den Heuvel  : Paramagnetic NMR
   Boris Wezisla          : Elementary symmetry handling
   Frank Wennmohs         : Technical directorship


 We gratefully acknowledge several colleagues who have allowed us to
 interface, adapt or use parts of their codes:
   Stefan Grimme, W. Hujo, H. Kruse, P. Pracht,  : VdW corrections, initial TS optimization,
                  C. Bannwarth, S. Ehlert          DFT functionals, gCP, sTDA/sTD-DF
   Ed Valeev, F. Pavosevic, A. Kumar             : LibInt (2-el integral package), F12 methods
   Garnet Chan, S. Sharma, J. Yang, R. Olivares  : DMRG
   Ulf Ekstrom                                   : XCFun DFT Library
   Mihaly Kallay                                 : mrcc  (arbitrary order and MRCC methods)
   Jiri Pittner, Ondrej Demel                    : Mk-CCSD
   Frank Weinhold                                : gennbo (NPA and NBO analysis)
   Christopher J. Cramer and Donald G. Truhlar   : smd solvation model
   Lars Goerigk                                  : TD-DFT with DH, B97 family of functionals
   V. Asgeirsson, H. Jonsson                     : NEB implementation
   FAccTs GmbH                                   : IRC, NEB, NEB-TS, DLPNO-Multilevel, CI-OPT
                                                   MM, QMMM, 2- and 3-layer-ONIOM, Crystal-QMMM,
                                                   LR-CPCM, SF, NACMEs, symmetry and pop. for TD-DFT,
                                                   nearIR, NL-DFT gradient (VV10), updates on ESD,
                                                   ML-optimized integration grids
   S Lehtola, MJT Oliveira, MAL Marques          : LibXC Library
   Liviu Ungur et al                             : ANISO software


 Your calculation uses the libint2 library for the computation of 2-el integrals
 For citations please refer to: http://libint.valeyev.net

 Your ORCA version has been built with support for libXC version: 5.1.0
 For citations please refer to: https://tddft.org/programs/libxc/

 This ORCA versions uses:
   CBLAS   interface :  Fast vector & matrix operations
   LAPACKE interface :  Fast linear algebra routines
   SCALAPACK package :  Parallel linear algebra routines
   Shared memory     :  Shared parallel matrices
   BLAS/LAPACK       :  OpenBLAS 0.3.15  USE64BITINT DYNAMIC_ARCH NO_AFFINITY SkylakeX SINGLE_THREADED
        Core in use  :  SkylakeX
   Copyright (c) 2011-2014, The OpenBLAS Project


================================================================================

----- Orbital basis set information -----
Your calculation utilizes the basis: aug-cc-pVDZ 
    H, B-Ne : Obtained from the ccRepo (grant-hill.group.shef.ac.uk/ccrepo) Feb. 2017
              R. A. Kendall, T. H. Dunning, Jr., R. J. Harrison, J. Chem. Phys. 96, 6796 (1992)
         He : Obtained from the ccRepo (grant-hill.group.shef.ac.uk/ccrepo) Feb. 2017
              D. E. Woon, T. H. Dunning, Jr., J. Chem. Phys. 100, 2975 (1994)
  Li-Be, Na : Obtained from the ccRepo (grant-hill.group.shef.ac.uk/ccrepo) Feb. 2017
              B. P. Prascher, D. E. Woon, K. A. Peterson, T. H. Dunning, Jr., A. K. Wilson, Theor. Chem. Acc. 128, 69 (2011)
         Mg : Obtained from the Peterson Research Group Website (tyr0.chem.wsu.edu/~kipeters) Feb. 2017
              B. P. Prascher, D. E. Woon, K. A. Peterson, T. H. Dunning, Jr., A. K. Wilson, Theor. Chem. Acc. 128, 69 (2011)
      Al-Ar : Obtained from the ccRepo (grant-hill.group.shef.ac.uk/ccrepo) Feb. 2017
              D. E. Woon, T. H. Dunning, Jr., J. Chem. Phys. 98, 1358 (1993)
      Sc-Zn : Obtained from the ccRepo (grant-hill.group.shef.ac.uk/ccrepo) Feb. 2017
              N. B. Balabanov, K. A. Peterson, J. Chem. Phys. 123, 064107 (2005)
              N. B. Balabanov, K. A. Peterson, J. Chem. Phys. 125, 074110 (2006)
      Ga-Kr : Obtained from the ccRepo (grant-hill.group.shef.ac.uk/ccrepo) Feb. 2017
              A. K. Wilson, D. E. Woon, K. A. Peterson, T. H. Dunning, Jr., J. Chem. Phys. 110, 7667 (1999)

================================================================================
                                        WARNINGS
                       Please study these warnings very carefully!
================================================================================


INFO   : the flag for use of the SHARK integral package has been found!

================================================================================
                                       INPUT FILE
================================================================================
NAME = phenol_efield_z_0.064.inp
|  1> ! hf aug-cc-pVDZ
|  2> ! MiniPrint VeryTightSCF
|  3> %pal
|  4>  nprocs 16
|  5> end
|  6> %MaxCore 2000
|  7> %scf
|  8>  maxiter=200
|  9>  efield 0.0 , 0.0 , 0.064
| 10> end
| 11> %elprop
| 12>   polar 1
| 13> end
| 14> * xyz 0 1
| 15>  C                  0.26178012    2.32984290    0.00000000
| 16>  C                  1.65694012    2.32984290    0.00000000
| 17>  C                  2.35447812    3.53759390    0.00000000
| 18>  C                  1.65682412    4.74610290   -0.00119900
| 19>  C                  0.26199912    4.74602490   -0.00167800
| 20>  C                 -0.43560188    3.53781890   -0.00068200
| 21>  H                 -0.28797888    1.37752590    0.00045000
| 22>  H                  2.20644812    1.37732990    0.00131500
| 23>  H                  3.45415812    3.53767390    0.00063400
| 24>  H                  2.20702412    5.69824590   -0.00125800
| 25>  H                 -0.28812288    5.69830590   -0.00263100
| 26>  O                 -1.86560184    3.53805688   -0.00091608
| 27>  H                 -2.18650479    3.53625036    0.90385905
| 28> *
| 29> 
| 30>                          ****END OF INPUT****
================================================================================

                       ****************************
                       * Single Point Calculation *
                       ****************************

---------------------------------
CARTESIAN COORDINATES (ANGSTROEM)
---------------------------------
  C      0.261780    2.329843    0.000000
  C      1.656940    2.329843    0.000000
  C      2.354478    3.537594    0.000000
  C      1.656824    4.746103   -0.001199
  C      0.261999    4.746025   -0.001678
  C     -0.435602    3.537819   -0.000682
  H     -0.287979    1.377526    0.000450
  H      2.206448    1.377330    0.001315
  H      3.454158    3.537674    0.000634
  H      2.207024    5.698246   -0.001258
  H     -0.288123    5.698306   -0.002631
  O     -1.865602    3.538057   -0.000916
  H     -2.186505    3.536250    0.903859

----------------------------
CARTESIAN COORDINATES (A.U.)
----------------------------
  NO LB      ZA    FRAG     MASS         X           Y           Z
   0 C     6.0000    0    12.011    0.494693    4.402765    0.000000
   1 C     6.0000    0    12.011    3.131163    4.402765    0.000000
   2 C     6.0000    0    12.011    4.449319    6.685084    0.000000
   3 C     6.0000    0    12.011    3.130944    8.968835   -0.002266
   4 C     6.0000    0    12.011    0.495107    8.968687   -0.003171
   5 C     6.0000    0    12.011   -0.823168    6.685509   -0.001289
   6 H     1.0000    0     1.008   -0.544201    2.603147    0.000850
   7 H     1.0000    0     1.008    4.169583    2.602776    0.002485
   8 H     1.0000    0     1.008    6.527413    6.685235    0.001198
   9 H     1.0000    0     1.008    4.170671   10.768124   -0.002377
  10 H     1.0000    0     1.008   -0.544473   10.768238   -0.004972
  11 O     8.0000    0    15.999   -3.525477    6.685959   -0.001731
  12 H     1.0000    0     1.008   -4.131895    6.682545    1.708046



           ************************************************************
           *        Program running with 16 parallel MPI-processes    *
           *              working on a common directory               *
           ************************************************************
------------------------------------------------------------------------------
                   ___                                                        
                  /   \      - P O W E R E D   B Y -                         
                 /     \                                                     
                 |  |  |   _    _      __       _____    __    __             
                 |  |  |  | |  | |    /  \     |  _  \  |  |  /  |          
                  \  \/   | |  | |   /    \    | | | |  |  | /  /          
                 / \  \   | |__| |  /  /\  \   | |_| |  |  |/  /          
                |  |  |   |  __  | /  /__\  \  |    /   |      \           
                |  |  |   | |  | | |   __   |  |    \   |  |\   \          
                \     /   | |  | | |  |  |  |  | |\  \  |  | \   \       
                 \___/    |_|  |_| |__|  |__|  |_| \__\ |__|  \__/        
                                                                              
                      - O R C A' S   B I G   F R I E N D -                    
                                      &                                       
                       - I N T E G R A L  F E E D E R -                       
                                                                              
 v1 FN, 2020, v2 2021                                                         
------------------------------------------------------------------------------


Reading SHARK input file phenol_efield_z_0.064.SHARKINP.tmp ... ok
----------------------
SHARK INTEGRAL PACKAGE
----------------------

Number of atoms                             ...     13
Number of basis functions                   ...    257
Number of shells                            ...    135
Maximum angular momentum                    ...      2
Integral batch strategy                     ... SHARK/LIBINT Hybrid
RI-J (if used) integral strategy            ... SPLIT-RIJ (Revised 2003 algorithm where possible)
Printlevel                                  ...      1
Contraction scheme used                     ... PARTIAL GENERAL contraction
Coulomb Range Separation                    ... NOT USED
Exchange Range Separation                   ... NOT USED
Finite Nucleus Model                        ... NOT USED
Auxiliary Coulomb fitting basis             ... NOT available
Auxiliary J/K fitting basis                 ... NOT available
Auxiliary Correlation fitting basis         ... NOT available
Auxiliary 'external' fitting basis          ... NOT available
Integral threshold                          ...     1.000000e-12
Primitive cut-off                           ...     1.000000e-14
Primitive pair pre-selection threshold      ...     1.000000e-14

Calculating pre-screening integrals         ... done (  0.0 sec) Dimension = 135
Calculating pre-screening integrals (ORCA)  ... done (  0.1 sec) Dimension = 93
Organizing shell pair data                  ... done (  0.0 sec)
Shell pair information
Total number of shell pairs                 ...      9180
Shell pairs after pre-screening             ...      8071
Total number of primitive shell pairs       ...     13080
Primitive shell pairs kept                  ...     10795
          la=0 lb=0:   2934 shell pairs
          la=1 lb=0:   2805 shell pairs
          la=1 lb=1:    559 shell pairs
          la=2 lb=0:   1207 shell pairs
          la=2 lb=1:    461 shell pairs
          la=2 lb=2:    105 shell pairs

Calculating one electron integrals          ... done (  0.0 sec)
Calculating Nuclear repulsion               ... done (  0.0 sec) ENN=    268.852435669254 Eh

SHARK setup successfully completed in   0.3 seconds

Maximum memory used throughout the entire GTOINT-calculation: 17.0 MB

An Electric Field will be added: 0.000e+00 0.000e+00 6.400e-02 au

  ... done adding electric field perturbation



           ************************************************************
           *        Program running with 16 parallel MPI-processes    *
           *              working on a common directory               *
           ************************************************************

Diagonalization of the overlap matrix:
Smallest eigenvalue                        ... 2.604e-06
Time for diagonalization                   ...    0.006 sec
Threshold for overlap eigenvalues          ... 1.000e-08
Number of eigenvalues below threshold      ... 0
Time for construction of square roots      ...    0.012 sec
Total time needed                          ...    0.019 sec

Time for model grid setup =    0.058 sec

Loading Hartree-Fock densities                     ... done
Calculating cut-offs                               ... done
Initializing the effective Hamiltonian             ... done
Setting up the integral package (SHARK)            ... done
Starting the Coulomb interaction                   ... done (   0.0 sec)
Reading the grid                                   ... done
Mapping shells                                     ... done
Starting the XC term evaluation                    ... done (   0.0 sec)
Transforming the Hamiltonian                       ... done (   0.0 sec)
Diagonalizing the Hamiltonian                      ... done (   0.0 sec)
Back transforming the eigenvectors                 ... done (   0.0 sec)
Now organizing SCF variables                       ... done
--------------
SCF ITERATIONS
--------------
ITER       Energy         Delta-E        Max-DP      RMS-DP      [F,P]     Damp
               ***  Starting incremental Fock matrix formation  ***
  0   -305.4611924719   0.000000000000 3.08513355  0.02897019  0.2340571 0.7000
  1   -305.5571789633  -0.095986491434 4.39075841  0.03879195  0.1498235 0.7000
                               ***Turning on DIIS***
  2   -305.6167915579  -0.05961259456113.04894256  0.11467244  0.0912853 0.0000
  3   -305.2142854064   0.402506151465 1.63141247  0.01696757  0.0445947 0.0000
  4   -305.6881072730  -0.473821866561 0.43876685  0.00730415  0.0049660 0.0000
  5   -305.7278007497  -0.039693476723 0.37748383  0.00618444  0.0044346 0.0000
                      *** Initiating the SOSCF procedure ***
                           *** Shutting down DIIS ***
                      *** Re-Reading the Fockian *** 
                      *** Removing any level shift *** 
ITER      Energy       Delta-E        Grad      Rot      Max-DP    RMS-DP
  6   -305.74101428  -0.0132135307  0.001292  0.001292  0.325761  0.005263
               *** Restarting incremental Fock matrix formation ***
  7   -305.74175677  -0.0007424875  0.000919  0.004262  0.605691  0.009381
  8   -305.74178356  -0.0000267890  0.000413  0.005282  1.611592  0.017089
  9   -305.74179658  -0.0000130226  0.000151  0.000994  0.448792  0.003880
 10   -305.74179840  -0.0000018243  0.000134  0.001264  0.618815  0.005379
 11   -305.74179921  -0.0000008059  0.000082  0.001650  0.817097  0.007182
 12   -305.74179960  -0.0000003930  0.000019  0.000239  0.131960  0.001214
 13   -305.74179963  -0.0000000243  0.000009  0.000056  0.040508  0.000392
 14   -305.74179963  -0.0000000051  0.000003  0.000018  0.006733  0.000061
 15   -305.74179963  -0.0000000006  0.000001  0.000011  0.001099  0.000018
 16   -305.74179963  -0.0000000001  0.000001  0.000007  0.002958  0.000027
                  ***Gradient check signals convergence***
              ***Rediagonalizing the Fockian in SOSCF/NRSCF***

               *****************************************************
               *                     SUCCESS                       *
               *           SCF CONVERGED AFTER  17 CYCLES          *
               *****************************************************

Total Energy       :         -305.74179963 Eh           -8319.65733 eV
  Last Energy change         ...   -7.3896e-12  Tolerance :   1.0000e-09
  Last MAX-Density change    ...    1.7504e-03  Tolerance :   1.0000e-08
             **** THE GBW FILE WAS UPDATED (phenol_efield_z_0.064.gbw) ****
             **** DENSITY phenol_efield_z_0.064.scfp WAS UPDATED ****
             **** ENERGY FILE WAS UPDATED (phenol_efield_z_0.064.en.tmp) ****
             **** THE GBW FILE WAS UPDATED (phenol_efield_z_0.064.gbw) ****
             **** DENSITY phenol_efield_z_0.064.scfp WAS UPDATED ****
----------------
ORBITAL ENERGIES
----------------

  NO   OCC          E(Eh)            E(eV) 
   0   2.0000     -20.605061      -560.6922 
   1   2.0000     -11.351206      -308.8820 
   2   2.0000     -11.298500      -307.4478 
   3   2.0000     -11.298319      -307.4429 
   4   2.0000     -11.292477      -307.2839 
   5   2.0000     -11.291803      -307.2656 
   6   2.0000     -11.291702      -307.2628 
   7   2.0000      -1.394280       -37.9403 
   8   2.0000      -1.194801       -32.5122 
   9   2.0000      -1.063379       -28.9360 
  10   2.0000      -1.048504       -28.5312 
  11   2.0000      -0.874854       -23.8060 
  12   2.0000      -0.859903       -23.3992 
  13   2.0000      -0.754650       -20.5351 
  14   2.0000      -0.706654       -19.2290 
  15   2.0000      -0.687060       -18.6958 
  16   2.0000      -0.660742       -17.9797 
  17   2.0000      -0.628939       -17.1143 
  18   2.0000      -0.619916       -16.8688 
  19   2.0000      -0.553642       -15.0654 
  20   2.0000      -0.552395       -15.0314 
  21   2.0000      -0.527923       -14.3655 
  22   2.0000      -0.504751       -13.7350 
  23   2.0000      -0.374370       -10.1871 
  24   2.0000      -0.364238        -9.9114 
  25   0.0000      -0.193248        -5.2585 
  26   0.0000      -0.147669        -4.0183 
  27   0.0000      -0.142936        -3.8895 
  28   0.0000      -0.089657        -2.4397 
  29   0.0000      -0.085550        -2.3279 
  30   0.0000      -0.045272        -1.2319 
  31   0.0000      -0.014308        -0.3893 
  32   0.0000       0.049603         1.3498 
  33   0.0000       0.069058         1.8792 
  34   0.0000       0.075998         2.0680 
  35   0.0000       0.081671         2.2224 
  36   0.0000       0.090987         2.4759 
  37   0.0000       0.128543         3.4978 
  38   0.0000       0.129523         3.5245 
  39   0.0000       0.130365         3.5474 
  40   0.0000       0.133375         3.6293 
  41   0.0000       0.139299         3.7905 
  42   0.0000       0.158489         4.3127 
  43   0.0000       0.166444         4.5292 
  44   0.0000       0.174985         4.7616 
  45   0.0000       0.192452         5.2369 
  46   0.0000       0.196630         5.3506 
  47   0.0000       0.206500         5.6191 
  48   0.0000       0.226426         6.1614 
  49   0.0000       0.259133         7.0514 
  50   0.0000       0.260376         7.0852 
  51   0.0000       0.270579         7.3628 
  52   0.0000       0.285595         7.7714 
  53   0.0000       0.295712         8.0467 
  54   0.0000       0.301473         8.2035 
  55   0.0000       0.310708         8.4548 
  56   0.0000       0.323472         8.8021 
  57   0.0000       0.326249         8.8777 
  58   0.0000       0.330155         8.9840 
  59   0.0000       0.332758         9.0548 
  60   0.0000       0.355973         9.6865 
  61   0.0000       0.358848         9.7648 
  62   0.0000       0.363467         9.8904 
  63   0.0000       0.374570        10.1926 
  64   0.0000       0.380486        10.3536 
  65   0.0000       0.382779        10.4159 
  66   0.0000       0.401742        10.9319 
  67   0.0000       0.405100        11.0233 
  68   0.0000       0.414377        11.2758 
  69   0.0000       0.432000        11.7553 
  70   0.0000       0.443988        12.0815 
  71   0.0000       0.466092        12.6830 
  72   0.0000       0.472184        12.8488 
  73   0.0000       0.480680        13.0800 
  74   0.0000       0.486603        13.2411 
  75   0.0000       0.490893        13.3579 
  76   0.0000       0.499444        13.5906 
  77   0.0000       0.505946        13.7675 
  78   0.0000       0.511759        13.9257 
  79   0.0000       0.528427        14.3792 
  80   0.0000       0.538160        14.6441 
  81   0.0000       0.562098        15.2955 
  82   0.0000       0.569012        15.4836 
  83   0.0000       0.574175        15.6241 
  84   0.0000       0.589932        16.0529 
  85   0.0000       0.590586        16.0707 
  86   0.0000       0.600629        16.3440 
  87   0.0000       0.602376        16.3915 
  88   0.0000       0.629811        17.1380 
  89   0.0000       0.640426        17.4269 
  90   0.0000       0.649200        17.6656 
  91   0.0000       0.651051        17.7160 
  92   0.0000       0.665549        18.1105 
  93   0.0000       0.676336        18.4040 
  94   0.0000       0.690369        18.7859 
  95   0.0000       0.691435        18.8149 
  96   0.0000       0.713502        19.4154 
  97   0.0000       0.713790        19.4232 
  98   0.0000       0.722943        19.6723 
  99   0.0000       0.737030        20.0556 
 100   0.0000       0.745485        20.2857 
 101   0.0000       0.745556        20.2876 
 102   0.0000       0.757216        20.6049 
 103   0.0000       0.766129        20.8474 
 104   0.0000       0.803134        21.8544 
 105   0.0000       0.815384        22.1877 
 106   0.0000       0.835806        22.7434 
 107   0.0000       0.838113        22.8062 
 108   0.0000       0.853522        23.2255 
 109   0.0000       0.866011        23.5654 
 110   0.0000       0.883772        24.0487 
 111   0.0000       0.893568        24.3152 
 112   0.0000       0.901376        24.5277 
 113   0.0000       0.905015        24.6267 
 114   0.0000       0.922893        25.1132 
 115   0.0000       0.925414        25.1818 
 116   0.0000       0.929675        25.2977 
 117   0.0000       0.946434        25.7538 
 118   0.0000       0.957112        26.0444 
 119   0.0000       0.957767        26.0622 
 120   0.0000       0.973764        26.4975 
 121   0.0000       1.017330        27.6829 
 122   0.0000       1.024751        27.8849 
 123   0.0000       1.056939        28.7608 
 124   0.0000       1.061327        28.8802 
 125   0.0000       1.065836        29.0029 
 126   0.0000       1.133069        30.8324 
 127   0.0000       1.141255        31.0551 
 128   0.0000       1.153397        31.3855 
 129   0.0000       1.159199        31.5434 
 130   0.0000       1.215237        33.0683 
 131   0.0000       1.264091        34.3977 
 132   0.0000       1.341008        36.4907 
 133   0.0000       1.356311        36.9071 
 134   0.0000       1.395777        37.9810 
 135   0.0000       1.418606        38.6022 
 136   0.0000       1.429300        38.8932 
 137   0.0000       1.454209        39.5711 
 138   0.0000       1.456754        39.6403 
 139   0.0000       1.500992        40.8441 
 140   0.0000       1.501350        40.8538 
 141   0.0000       1.527124        41.5552 
 142   0.0000       1.536716        41.8162 
 143   0.0000       1.567777        42.6614 
 144   0.0000       1.577381        42.9227 
 145   0.0000       1.604019        43.6476 
 146   0.0000       1.607823        43.7511 
 147   0.0000       1.614784        43.9405 
 148   0.0000       1.623892        44.1883 
 149   0.0000       1.631997        44.4089 
 150   0.0000       1.640568        44.6421 
 151   0.0000       1.671465        45.4829 
 152   0.0000       1.684140        45.8278 
 153   0.0000       1.684950        45.8498 
 154   0.0000       1.702580        46.3296 
 155   0.0000       1.740506        47.3616 
 156   0.0000       1.761662        47.9373 
 157   0.0000       1.770839        48.1870 
 158   0.0000       1.833549        49.8934 
 159   0.0000       1.851681        50.3868 
 160   0.0000       1.858185        50.5638 
 161   0.0000       1.861783        50.6617 
 162   0.0000       1.875781        51.0426 
 163   0.0000       1.904893        51.8348 
 164   0.0000       1.915213        52.1156 
 165   0.0000       1.921246        52.2798 
 166   0.0000       1.932247        52.5791 
 167   0.0000       1.948315        53.0164 
 168   0.0000       1.957506        53.2665 
 169   0.0000       2.018130        54.9161 
 170   0.0000       2.028679        55.2032 
 171   0.0000       2.065954        56.2175 
 172   0.0000       2.082016        56.6545 
 173   0.0000       2.115943        57.5777 
 174   0.0000       2.134238        58.0756 
 175   0.0000       2.146817        58.4179 
 176   0.0000       2.165478        58.9257 
 177   0.0000       2.173699        59.1493 
 178   0.0000       2.181998        59.3752 
 179   0.0000       2.220212        60.4151 
 180   0.0000       2.236892        60.8689 
 181   0.0000       2.258704        61.4625 
 182   0.0000       2.291436        62.3531 
 183   0.0000       2.322633        63.2021 
 184   0.0000       2.330929        63.4278 
 185   0.0000       2.359935        64.2171 
 186   0.0000       2.386589        64.9424 
 187   0.0000       2.422866        65.9295 
 188   0.0000       2.456665        66.8493 
 189   0.0000       2.586933        70.3940 
 190   0.0000       2.626107        71.4600 
 191   0.0000       2.648811        72.0778 
 192   0.0000       2.678011        72.8724 
 193   0.0000       2.725388        74.1616 
 194   0.0000       2.734458        74.4084 
 195   0.0000       2.737760        74.4982 
 196   0.0000       2.841059        77.3091 
 197   0.0000       2.865799        77.9824 
 198   0.0000       2.910137        79.1889 
 199   0.0000       2.980516        81.1040 
 200   0.0000       3.018077        82.1261 
 201   0.0000       3.050095        82.9973 
 202   0.0000       3.092830        84.1602 
 203   0.0000       3.170228        86.2663 
 204   0.0000       3.241602        88.2085 
 205   0.0000       3.342778        90.9616 
 206   0.0000       3.483047        94.7785 
 207   0.0000       3.515509        95.6619 
 208   0.0000       3.711104       100.9843 
 209   0.0000       3.753114       102.1274 
 210   0.0000       3.806591       103.5826 
 211   0.0000       3.902002       106.1789 
 212   0.0000       3.978026       108.2476 
 213   0.0000       4.255730       115.8043 
 214   0.0000       4.686967       127.5389 
Total SCF time: 0 days 0 hours 0 min 20 sec 

Maximum memory used throughout the entire SCF-calculation: 231.6 MB

-------------------------   --------------------
FINAL SINGLE POINT ENERGY      -305.741799632915
-------------------------   --------------------


                            ***************************************
                            *     ORCA property calculations      *
                            ***************************************

                                    ---------------------
                                    Active property flags
                                    ---------------------
   (+) Dipole Moment
   (+) Polarizability


------------------------------------------------------------------------------
                       ORCA ELECTRIC PROPERTIES CALCULATION
------------------------------------------------------------------------------

Dipole Moment Calculation                       ... on
Quadrupole Moment Calculation                   ... off
Polarizability Calculation                      ... Analytic (CP-SCF)
GBWName                                         ... phenol_efield_z_0.064.gbw
Electron density                                ... phenol_efield_z_0.064.scfp
The origin for moment calculation is the CENTER OF MASS  = ( 0.892295,  6.685629  0.017111)

-------------
DIPOLE MOMENT
-------------
                                X             Y             Z
Electronic contribution:     -2.05564      -0.00189       3.92808
Nuclear contribution   :      2.09690      -0.00184       0.79546
                        -----------------------------------------
Total Dipole Moment    :      0.04126      -0.00373       4.72354
                        -----------------------------------------
Magnitude (a.u.)       :      4.72372
Magnitude (Debye)      :     12.00675



--------------------
Rotational spectrum 
--------------------
 
Rotational constants in cm-1:     0.187876     0.084795     0.058746 
Rotational constants in MHz :  5632.368735  2542.097443  1761.161239 

 Dipole components along the rotational axes: 
x,y,z [a.u.] :    -0.015978     0.006711     4.723690 
x,y,z [Debye]:    -0.040613     0.017059    12.006666 

 
Transforming and storing MO dipole integrals   ... done

                ... starting polarizability calculation

The origin for moment calculation is the CENTER OF MASS  = ( 0.892295,  6.685629  0.017111)
Opening the Dipole integral file               ... (phenol_efield_z_0.064.dmo.tmp) done
Reading Dipole-MO integrals                    ... done
Solving CP-SCF equations                       ... 

           ************************************************************
           *        Program running with 16 parallel MPI-processes    *
           *              working on a common directory               *
           ************************************************************

------------------------------------------------------------------------------
                           ORCA CP-SCF CALCULATION
------------------------------------------------------------------------------

Input orbitals are from        ... phenol_efield_z_0.064.gbw
Input Perturbation             ... phenol_efield_z_0.064.cpv.tmp
Wavefunction output            ... phenol_efield_z_0.064.cpu.tmp
Perturbation mode              ... Real perturbation (singlet)
Solver                         ... POPLE
Max. number of iterations      ... 64
Convergence tolerance          ... 3.000e-05
Integral handling              ... Direct
Number of perturbations        ... 3
Number of operators            ... 1
Orbital ranges used for CP-SCF:
 Operator 0:  Orbitals   0... 24  to  25...214
Variables per perturbation     ... 4750
Memory available               ... 1992.1 MB
Memory needed per perturbation ...   1.4 MB
Perturbations treated per batch... 3
Number of batches              ... 1
     CP-SCF ITERATION   0:   3.2378e+00 (   2.2 sec   0/  3 done)
     CP-SCF ITERATION   1:   1.4911e+00 (   2.2 sec   0/  3 done)
     CP-SCF ITERATION   2:   8.7162e-01 (   2.3 sec   0/  3 done)
     CP-SCF ITERATION   3:   3.4237e-01 (   2.3 sec   0/  3 done)
     CP-SCF ITERATION   4:   1.4457e-01 (   2.3 sec   0/  3 done)
     CP-SCF ITERATION   5:   7.1209e-02 (   2.3 sec   0/  3 done)
     CP-SCF ITERATION   6:   4.4361e-02 (   2.3 sec   0/  3 done)
     CP-SCF ITERATION   7:   1.5624e-02 (   2.3 sec   0/  3 done)
     CP-SCF ITERATION   8:   5.1023e-03 (   2.3 sec   0/  3 done)
     CP-SCF ITERATION   9:   1.7651e-03 (   2.3 sec   0/  3 done)
     CP-SCF ITERATION  10:   7.4076e-04 (   2.3 sec   0/  3 done)
     CP-SCF ITERATION  11:   1.9636e-04 (   2.3 sec   0/  3 done)
     CP-SCF ITERATION  12:   6.4759e-05 (   2.3 sec   1/  3 done)
     CP-SCF ITERATION  13:   2.0931e-05 (   1.9 sec   3/  3 done)
                    *** THE CP-SCF HAS CONVERGED ***
done
Reading CP-SCF coefficients                    ... done
Doing the polarizability tensor                ... done
Cleaning up                                    ... done

-------------------------
THE POLARIZABILITY TENSOR
-------------------------

The raw cartesian tensor (atomic units):
  132.19457      0.00914    -10.34154  
    0.00914    128.15399     -0.13749  
  -10.34154     -0.13749    126.05329  
diagonalized tensor: 
  118.33503    128.15442    139.91240  

    0.59799     -0.01248     -0.80140  
    0.01067      0.99991     -0.00762  
    0.80143     -0.00399      0.59808  

Isotropic polarizability : 128.80062


Timings for individual modules:

Sum of individual times         ...       60.137 sec (=   1.002 min)
GTO integral calculation        ...        2.925 sec (=   0.049 min)   4.9 %
SCF iterations                  ...       23.044 sec (=   0.384 min)  38.3 %
Solution of CP-SCF eqns.        ...       34.167 sec (=   0.569 min)  56.8 %
                             ****ORCA TERMINATED NORMALLY****
TOTAL RUN TIME: 0 days 0 hours 1 minutes 3 seconds 273 msec
