
                                 *****************
                                 * O   R   C   A *
                                 *****************

                                            #,                                       
                                            ###                                      
                                            ####                                     
                                            #####                                    
                                            ######                                   
                                           ########,                                 
                                     ,,################,,,,,                         
                               ,,#################################,,                 
                          ,,##########################################,,             
                       ,#########################################, ''#####,          
                    ,#############################################,,   '####,        
                  ,##################################################,,,,####,       
                ,###########''''           ''''###############################       
              ,#####''   ,,,,##########,,,,          '''####'''          '####       
            ,##' ,,,,###########################,,,                        '##       
           ' ,,###''''                  '''############,,,                           
         ,,##''                                '''############,,,,        ,,,,,,###''
      ,#''                                            '''#######################'''  
     '                                                          ''''####''''         
             ,#######,   #######,   ,#######,      ##                                
            ,#'     '#,  ##    ##  ,#'     '#,    #''#        ######   ,####,        
            ##       ##  ##   ,#'  ##            #'  '#       #        #'  '#        
            ##       ##  #######   ##           ,######,      #####,   #    #        
            '#,     ,#'  ##    ##  '#,     ,#' ,#      #,         ##   #,  ,#        
             '#######'   ##     ##  '#######'  #'      '#     #####' # '####'        



                  #######################################################
                  #                        -***-                        #
                  #          Department of theory and spectroscopy      #
                  #    Directorship and core code : Frank Neese         #
                  #        Max Planck Institute fuer Kohlenforschung    #
                  #                Kaiser Wilhelm Platz 1               #
                  #                 D-45470 Muelheim/Ruhr               #
                  #                      Germany                        #
                  #                                                     #
                  #                  All rights reserved                #
                  #                        -***-                        #
                  #######################################################


                         Program Version 5.0.4 -  RELEASE  -


 With contributions from (in alphabetic order):
   Daniel Aravena         : Magnetic Suceptibility
   Michael Atanasov       : Ab Initio Ligand Field Theory (pilot matlab implementation)
   Alexander A. Auer      : GIAO ZORA, VPT2 properties, NMR spectrum
   Ute Becker             : Parallelization
   Giovanni Bistoni       : ED, misc. LED, open-shell LED, HFLD
   Martin Brehm           : Molecular dynamics
   Dmytro Bykov           : SCF Hessian
   Vijay G. Chilkuri      : MRCI spin determinant printing, contributions to CSF-ICE
   Dipayan Datta          : RHF DLPNO-CCSD density
   Achintya Kumar Dutta   : EOM-CC, STEOM-CC
   Dmitry Ganyushin       : Spin-Orbit,Spin-Spin,Magnetic field MRCI
   Miquel Garcia          : C-PCM and meta-GGA Hessian, CC/C-PCM, Gaussian charge scheme
   Yang Guo               : DLPNO-NEVPT2, F12-NEVPT2, CIM, IAO-localization
   Andreas Hansen         : Spin unrestricted coupled pair/coupled cluster methods
   Benjamin Helmich-Paris : MC-RPA, TRAH-SCF, COSX integrals
   Lee Huntington         : MR-EOM, pCC
   Robert Izsak           : Overlap fitted RIJCOSX, COSX-SCS-MP3, EOM
   Marcus Kettner         : VPT2
   Christian Kollmar      : KDIIS, OOCD, Brueckner-CCSD(T), CCSD density, CASPT2, CASPT2-K
   Simone Kossmann        : Meta GGA functionals, TD-DFT gradient, OOMP2, MP2 Hessian
   Martin Krupicka        : Initial AUTO-CI
   Lucas Lang             : DCDCAS
   Marvin Lechner         : AUTO-CI (C++ implementation), FIC-MRCC
   Dagmar Lenk            : GEPOL surface, SMD
   Dimitrios Liakos       : Extrapolation schemes; Compound Job, initial MDCI parallelization
   Dimitrios Manganas     : Further ROCIS development; embedding schemes
   Dimitrios Pantazis     : SARC Basis sets
   Anastasios Papadopoulos: AUTO-CI, single reference methods and gradients
   Taras Petrenko         : DFT Hessian,TD-DFT gradient, ASA, ECA, R-Raman, ABS, FL, XAS/XES, NRVS
   Peter Pinski           : DLPNO-MP2, DLPNO-MP2 Gradient
   Christoph Reimann      : Effective Core Potentials
   Marius Retegan         : Local ZFS, SOC
   Christoph Riplinger    : Optimizer, TS searches, QM/MM, DLPNO-CCSD(T), (RO)-DLPNO pert. Triples
   Tobias Risthaus        : Range-separated hybrids, TD-DFT gradient, RPA, STAB
   Michael Roemelt        : Original ROCIS implementation
   Masaaki Saitow         : Open-shell DLPNO-CCSD energy and density
   Barbara Sandhoefer     : DKH picture change effects
   Avijit Sen             : IP-ROCIS
   Kantharuban Sivalingam : CASSCF convergence, NEVPT2, FIC-MRCI
   Bernardo de Souza      : ESD, SOC TD-DFT
   Georgi Stoychev        : AutoAux, RI-MP2 NMR, DLPNO-MP2 response
   Willem Van den Heuvel  : Paramagnetic NMR
   Boris Wezisla          : Elementary symmetry handling
   Frank Wennmohs         : Technical directorship


 We gratefully acknowledge several colleagues who have allowed us to
 interface, adapt or use parts of their codes:
   Stefan Grimme, W. Hujo, H. Kruse, P. Pracht,  : VdW corrections, initial TS optimization,
                  C. Bannwarth, S. Ehlert          DFT functionals, gCP, sTDA/sTD-DF
   Ed Valeev, F. Pavosevic, A. Kumar             : LibInt (2-el integral package), F12 methods
   Garnet Chan, S. Sharma, J. Yang, R. Olivares  : DMRG
   Ulf Ekstrom                                   : XCFun DFT Library
   Mihaly Kallay                                 : mrcc  (arbitrary order and MRCC methods)
   Jiri Pittner, Ondrej Demel                    : Mk-CCSD
   Frank Weinhold                                : gennbo (NPA and NBO analysis)
   Christopher J. Cramer and Donald G. Truhlar   : smd solvation model
   Lars Goerigk                                  : TD-DFT with DH, B97 family of functionals
   V. Asgeirsson, H. Jonsson                     : NEB implementation
   FAccTs GmbH                                   : IRC, NEB, NEB-TS, DLPNO-Multilevel, CI-OPT
                                                   MM, QMMM, 2- and 3-layer-ONIOM, Crystal-QMMM,
                                                   LR-CPCM, SF, NACMEs, symmetry and pop. for TD-DFT,
                                                   nearIR, NL-DFT gradient (VV10), updates on ESD,
                                                   ML-optimized integration grids
   S Lehtola, MJT Oliveira, MAL Marques          : LibXC Library
   Liviu Ungur et al                             : ANISO software


 Your calculation uses the libint2 library for the computation of 2-el integrals
 For citations please refer to: http://libint.valeyev.net

 Your ORCA version has been built with support for libXC version: 5.1.0
 For citations please refer to: https://tddft.org/programs/libxc/

 This ORCA versions uses:
   CBLAS   interface :  Fast vector & matrix operations
   LAPACKE interface :  Fast linear algebra routines
   SCALAPACK package :  Parallel linear algebra routines
   Shared memory     :  Shared parallel matrices
   BLAS/LAPACK       :  OpenBLAS 0.3.15  USE64BITINT DYNAMIC_ARCH NO_AFFINITY SkylakeX SINGLE_THREADED
        Core in use  :  SkylakeX
   Copyright (c) 2011-2014, The OpenBLAS Project


================================================================================

----- Orbital basis set information -----
Your calculation utilizes the basis: aug-cc-pVDZ 
    H, B-Ne : Obtained from the ccRepo (grant-hill.group.shef.ac.uk/ccrepo) Feb. 2017
              R. A. Kendall, T. H. Dunning, Jr., R. J. Harrison, J. Chem. Phys. 96, 6796 (1992)
         He : Obtained from the ccRepo (grant-hill.group.shef.ac.uk/ccrepo) Feb. 2017
              D. E. Woon, T. H. Dunning, Jr., J. Chem. Phys. 100, 2975 (1994)
  Li-Be, Na : Obtained from the ccRepo (grant-hill.group.shef.ac.uk/ccrepo) Feb. 2017
              B. P. Prascher, D. E. Woon, K. A. Peterson, T. H. Dunning, Jr., A. K. Wilson, Theor. Chem. Acc. 128, 69 (2011)
         Mg : Obtained from the Peterson Research Group Website (tyr0.chem.wsu.edu/~kipeters) Feb. 2017
              B. P. Prascher, D. E. Woon, K. A. Peterson, T. H. Dunning, Jr., A. K. Wilson, Theor. Chem. Acc. 128, 69 (2011)
      Al-Ar : Obtained from the ccRepo (grant-hill.group.shef.ac.uk/ccrepo) Feb. 2017
              D. E. Woon, T. H. Dunning, Jr., J. Chem. Phys. 98, 1358 (1993)
      Sc-Zn : Obtained from the ccRepo (grant-hill.group.shef.ac.uk/ccrepo) Feb. 2017
              N. B. Balabanov, K. A. Peterson, J. Chem. Phys. 123, 064107 (2005)
              N. B. Balabanov, K. A. Peterson, J. Chem. Phys. 125, 074110 (2006)
      Ga-Kr : Obtained from the ccRepo (grant-hill.group.shef.ac.uk/ccrepo) Feb. 2017
              A. K. Wilson, D. E. Woon, K. A. Peterson, T. H. Dunning, Jr., J. Chem. Phys. 110, 7667 (1999)

================================================================================
                                        WARNINGS
                       Please study these warnings very carefully!
================================================================================


INFO   : the flag for use of the SHARK integral package has been found!

================================================================================
                                       INPUT FILE
================================================================================
NAME = phenol_efield_y_-0.008.inp
|  1> ! hf aug-cc-pVDZ
|  2> ! MiniPrint VeryTightSCF
|  3> %pal
|  4>  nprocs 16
|  5> end
|  6> %MaxCore 2000
|  7> %scf
|  8>  maxiter=200
|  9>  efield 0.0 , -0.008 , 0.0
| 10> end
| 11> %elprop
| 12>   polar 1
| 13> end
| 14> * xyz 0 1
| 15>  C                  0.26178012    2.32984290    0.00000000
| 16>  C                  1.65694012    2.32984290    0.00000000
| 17>  C                  2.35447812    3.53759390    0.00000000
| 18>  C                  1.65682412    4.74610290   -0.00119900
| 19>  C                  0.26199912    4.74602490   -0.00167800
| 20>  C                 -0.43560188    3.53781890   -0.00068200
| 21>  H                 -0.28797888    1.37752590    0.00045000
| 22>  H                  2.20644812    1.37732990    0.00131500
| 23>  H                  3.45415812    3.53767390    0.00063400
| 24>  H                  2.20702412    5.69824590   -0.00125800
| 25>  H                 -0.28812288    5.69830590   -0.00263100
| 26>  O                 -1.86560184    3.53805688   -0.00091608
| 27>  H                 -2.18650479    3.53625036    0.90385905
| 28> *
| 29> 
| 30>                          ****END OF INPUT****
================================================================================

                       ****************************
                       * Single Point Calculation *
                       ****************************

---------------------------------
CARTESIAN COORDINATES (ANGSTROEM)
---------------------------------
  C      0.261780    2.329843    0.000000
  C      1.656940    2.329843    0.000000
  C      2.354478    3.537594    0.000000
  C      1.656824    4.746103   -0.001199
  C      0.261999    4.746025   -0.001678
  C     -0.435602    3.537819   -0.000682
  H     -0.287979    1.377526    0.000450
  H      2.206448    1.377330    0.001315
  H      3.454158    3.537674    0.000634
  H      2.207024    5.698246   -0.001258
  H     -0.288123    5.698306   -0.002631
  O     -1.865602    3.538057   -0.000916
  H     -2.186505    3.536250    0.903859

----------------------------
CARTESIAN COORDINATES (A.U.)
----------------------------
  NO LB      ZA    FRAG     MASS         X           Y           Z
   0 C     6.0000    0    12.011    0.494693    4.402765    0.000000
   1 C     6.0000    0    12.011    3.131163    4.402765    0.000000
   2 C     6.0000    0    12.011    4.449319    6.685084    0.000000
   3 C     6.0000    0    12.011    3.130944    8.968835   -0.002266
   4 C     6.0000    0    12.011    0.495107    8.968687   -0.003171
   5 C     6.0000    0    12.011   -0.823168    6.685509   -0.001289
   6 H     1.0000    0     1.008   -0.544201    2.603147    0.000850
   7 H     1.0000    0     1.008    4.169583    2.602776    0.002485
   8 H     1.0000    0     1.008    6.527413    6.685235    0.001198
   9 H     1.0000    0     1.008    4.170671   10.768124   -0.002377
  10 H     1.0000    0     1.008   -0.544473   10.768238   -0.004972
  11 O     8.0000    0    15.999   -3.525477    6.685959   -0.001731
  12 H     1.0000    0     1.008   -4.131895    6.682545    1.708046



           ************************************************************
           *        Program running with 16 parallel MPI-processes    *
           *              working on a common directory               *
           ************************************************************
------------------------------------------------------------------------------
                   ___                                                        
                  /   \      - P O W E R E D   B Y -                         
                 /     \                                                     
                 |  |  |   _    _      __       _____    __    __             
                 |  |  |  | |  | |    /  \     |  _  \  |  |  /  |          
                  \  \/   | |  | |   /    \    | | | |  |  | /  /          
                 / \  \   | |__| |  /  /\  \   | |_| |  |  |/  /          
                |  |  |   |  __  | /  /__\  \  |    /   |      \           
                |  |  |   | |  | | |   __   |  |    \   |  |\   \          
                \     /   | |  | | |  |  |  |  | |\  \  |  | \   \       
                 \___/    |_|  |_| |__|  |__|  |_| \__\ |__|  \__/        
                                                                              
                      - O R C A' S   B I G   F R I E N D -                    
                                      &                                       
                       - I N T E G R A L  F E E D E R -                       
                                                                              
 v1 FN, 2020, v2 2021                                                         
------------------------------------------------------------------------------


Reading SHARK input file phenol_efield_y_-0.008.SHARKINP.tmp ... ok
----------------------
SHARK INTEGRAL PACKAGE
----------------------

Number of atoms                             ...     13
Number of basis functions                   ...    257
Number of shells                            ...    135
Maximum angular momentum                    ...      2
Integral batch strategy                     ... SHARK/LIBINT Hybrid
RI-J (if used) integral strategy            ... SPLIT-RIJ (Revised 2003 algorithm where possible)
Printlevel                                  ...      1
Contraction scheme used                     ... PARTIAL GENERAL contraction
Coulomb Range Separation                    ... NOT USED
Exchange Range Separation                   ... NOT USED
Finite Nucleus Model                        ... NOT USED
Auxiliary Coulomb fitting basis             ... NOT available
Auxiliary J/K fitting basis                 ... NOT available
Auxiliary Correlation fitting basis         ... NOT available
Auxiliary 'external' fitting basis          ... NOT available
Integral threshold                          ...     1.000000e-12
Primitive cut-off                           ...     1.000000e-14
Primitive pair pre-selection threshold      ...     1.000000e-14

Calculating pre-screening integrals         ... done (  0.0 sec) Dimension = 135
Calculating pre-screening integrals (ORCA)  ... done (  0.1 sec) Dimension = 93
Organizing shell pair data                  ... done (  0.0 sec)
Shell pair information
Total number of shell pairs                 ...      9180
Shell pairs after pre-screening             ...      8071
Total number of primitive shell pairs       ...     13080
Primitive shell pairs kept                  ...     10795
          la=0 lb=0:   2934 shell pairs
          la=1 lb=0:   2805 shell pairs
          la=1 lb=1:    559 shell pairs
          la=2 lb=0:   1207 shell pairs
          la=2 lb=1:    461 shell pairs
          la=2 lb=2:    105 shell pairs

Calculating one electron integrals          ... done (  0.0 sec)
Calculating Nuclear repulsion               ... done (  0.0 sec) ENN=    268.852435669254 Eh

SHARK setup successfully completed in   0.3 seconds

Maximum memory used throughout the entire GTOINT-calculation: 17.0 MB

An Electric Field will be added: 0.000e+00 -8.000e-03 0.000e+00 au

  ... done adding electric field perturbation



           ************************************************************
           *        Program running with 16 parallel MPI-processes    *
           *              working on a common directory               *
           ************************************************************

Diagonalization of the overlap matrix:
Smallest eigenvalue                        ... 2.604e-06
Time for diagonalization                   ...    0.006 sec
Threshold for overlap eigenvalues          ... 1.000e-08
Number of eigenvalues below threshold      ... 0
Time for construction of square roots      ...    0.012 sec
Total time needed                          ...    0.018 sec

Time for model grid setup =    0.058 sec

Loading Hartree-Fock densities                     ... done
Calculating cut-offs                               ... done
Initializing the effective Hamiltonian             ... done
Setting up the integral package (SHARK)            ... done
Starting the Coulomb interaction                   ... done (   0.0 sec)
Reading the grid                                   ... done
Mapping shells                                     ... done
Starting the XC term evaluation                    ... done (   0.0 sec)
Transforming the Hamiltonian                       ... done (   0.0 sec)
Diagonalizing the Hamiltonian                      ... done (   0.0 sec)
Back transforming the eigenvectors                 ... done (   0.0 sec)
Now organizing SCF variables                       ... done
--------------
SCF ITERATIONS
--------------
ITER       Energy         Delta-E        Max-DP      RMS-DP      [F,P]     Damp
               ***  Starting incremental Fock matrix formation  ***
  0   -305.3370417837   0.000000000000 0.95243478  0.02224373  0.2208419 0.7000
  1   -305.4268685664  -0.089826782730 0.70589863  0.01661725  0.1381462 0.7000
                               ***Turning on DIIS***
  2   -305.4819969160  -0.055128349629 1.63071124  0.03837751  0.0803980 0.0000
  3   -304.9984614967   0.483535419364 0.04762501  0.00158788  0.0393203 0.0000
  4   -305.5489613530  -0.550499856334 0.06702313  0.00109476  0.0052604 0.0000
                      *** Initiating the SOSCF procedure ***
                           *** Shutting down DIIS ***
                      *** Re-Reading the Fockian *** 
                      *** Removing any level shift *** 
ITER      Energy       Delta-E        Grad      Rot      Max-DP    RMS-DP
  5   -305.58090105  -0.0319396998  0.000879  0.000879  0.019924  0.000386
               *** Restarting incremental Fock matrix formation ***
  6   -305.59659263  -0.0156915785  0.000329  0.000721  0.002111  0.000074
  7   -305.59660216  -0.0000095251  0.000191  0.000483  0.004152  0.000087
  8   -305.59660488  -0.0000027257  0.000046  0.000131  0.000970  0.000025
  9   -305.59660515  -0.0000002641  0.000039  0.000214  0.000555  0.000016
 10   -305.59660526  -0.0000001148  0.000009  0.000013  0.000394  0.000008
 11   -305.59660527  -0.0000000081  0.000005  0.000015  0.000104  0.000002
 12   -305.59660527  -0.0000000015  0.000001  0.000003  0.000063  0.000001
                  ***Gradient check signals convergence***
              ***Rediagonalizing the Fockian in SOSCF/NRSCF***

               *****************************************************
               *                     SUCCESS                       *
               *           SCF CONVERGED AFTER  13 CYCLES          *
               *****************************************************

Total Energy       :         -305.59660527 Eh           -8315.70639 eV
  Last Energy change         ...   -1.4029e-10  Tolerance :   1.0000e-09
  Last MAX-Density change    ...    2.1625e-05  Tolerance :   1.0000e-08
             **** THE GBW FILE WAS UPDATED (phenol_efield_y_-0.008.gbw) ****
             **** DENSITY phenol_efield_y_-0.008.scfp WAS UPDATED ****
             **** ENERGY FILE WAS UPDATED (phenol_efield_y_-0.008.en.tmp) ****
             **** THE GBW FILE WAS UPDATED (phenol_efield_y_-0.008.gbw) ****
             **** DENSITY phenol_efield_y_-0.008.scfp WAS UPDATED ****
----------------
ORBITAL ENERGIES
----------------

  NO   OCC          E(Eh)            E(eV) 
   0   2.0000     -20.588664      -560.2460 
   1   2.0000     -11.307858      -307.7025 
   2   2.0000     -11.257568      -306.3340 
   3   2.0000     -11.252855      -306.2057 
   4   2.0000     -11.246519      -306.0333 
   5   2.0000     -11.245318      -306.0007 
   6   2.0000     -11.241396      -305.8939 
   7   2.0000      -1.376935       -37.4683 
   8   2.0000      -1.154243       -31.4085 
   9   2.0000      -1.023750       -27.8577 
  10   2.0000      -1.010486       -27.4967 
  11   2.0000      -0.837034       -22.7768 
  12   2.0000      -0.824989       -22.4491 
  13   2.0000      -0.725737       -19.7483 
  14   2.0000      -0.677893       -18.4464 
  15   2.0000      -0.647923       -17.6309 
  16   2.0000      -0.628893       -17.1131 
  17   2.0000      -0.591006       -16.0821 
  18   2.0000      -0.589325       -16.0364 
  19   2.0000      -0.521991       -14.2041 
  20   2.0000      -0.515614       -14.0306 
  21   2.0000      -0.499260       -13.5856 
  22   2.0000      -0.476479       -12.9657 
  23   2.0000      -0.343702        -9.3526 
  24   2.0000      -0.335308        -9.1242 
  25   0.0000      -0.015516        -0.4222 
  26   0.0000      -0.001226        -0.0333 
  27   0.0000       0.042259         1.1499 
  28   0.0000       0.049663         1.3514 
  29   0.0000       0.087283         2.3751 
  30   0.0000       0.093647         2.5483 
  31   0.0000       0.097576         2.6552 
  32   0.0000       0.106728         2.9042 
  33   0.0000       0.110201         2.9987 
  34   0.0000       0.119161         3.2425 
  35   0.0000       0.121602         3.3090 
  36   0.0000       0.123336         3.3561 
  37   0.0000       0.128667         3.5012 
  38   0.0000       0.141808         3.8588 
  39   0.0000       0.146924         3.9980 
  40   0.0000       0.148636         4.0446 
  41   0.0000       0.161990         4.4080 
  42   0.0000       0.165532         4.5044 
  43   0.0000       0.174088         4.7372 
  44   0.0000       0.178515         4.8576 
  45   0.0000       0.188343         5.1251 
  46   0.0000       0.194073         5.2810 
  47   0.0000       0.197745         5.3809 
  48   0.0000       0.206809         5.6276 
  49   0.0000       0.213800         5.8178 
  50   0.0000       0.218031         5.9329 
  51   0.0000       0.236534         6.4364 
  52   0.0000       0.253928         6.9097 
  53   0.0000       0.279361         7.6018 
  54   0.0000       0.287182         7.8146 
  55   0.0000       0.296523         8.0688 
  56   0.0000       0.303859         8.2684 
  57   0.0000       0.308964         8.4073 
  58   0.0000       0.318982         8.6799 
  59   0.0000       0.339267         9.2319 
  60   0.0000       0.348319         9.4782 
  61   0.0000       0.350366         9.5339 
  62   0.0000       0.354039         9.6339 
  63   0.0000       0.361754         9.8438 
  64   0.0000       0.371230        10.1017 
  65   0.0000       0.373105        10.1527 
  66   0.0000       0.380548        10.3552 
  67   0.0000       0.397136        10.8066 
  68   0.0000       0.412577        11.2268 
  69   0.0000       0.414618        11.2823 
  70   0.0000       0.415365        11.3027 
  71   0.0000       0.432411        11.7665 
  72   0.0000       0.440271        11.9804 
  73   0.0000       0.446282        12.1439 
  74   0.0000       0.466836        12.7032 
  75   0.0000       0.485270        13.2049 
  76   0.0000       0.496771        13.5178 
  77   0.0000       0.501015        13.6333 
  78   0.0000       0.518899        14.1200 
  79   0.0000       0.525565        14.3013 
  80   0.0000       0.531829        14.4718 
  81   0.0000       0.563258        15.3270 
  82   0.0000       0.574317        15.6280 
  83   0.0000       0.581002        15.8099 
  84   0.0000       0.590640        16.0721 
  85   0.0000       0.595606        16.2073 
  86   0.0000       0.606254        16.4970 
  87   0.0000       0.616594        16.7784 
  88   0.0000       0.630886        17.1673 
  89   0.0000       0.648845        17.6560 
  90   0.0000       0.654932        17.8216 
  91   0.0000       0.666565        18.1381 
  92   0.0000       0.669731        18.2243 
  93   0.0000       0.683387        18.5959 
  94   0.0000       0.688140        18.7252 
  95   0.0000       0.693209        18.8632 
  96   0.0000       0.704734        19.1768 
  97   0.0000       0.722847        19.6697 
  98   0.0000       0.739859        20.1326 
  99   0.0000       0.750439        20.4205 
 100   0.0000       0.754675        20.5358 
 101   0.0000       0.763841        20.7852 
 102   0.0000       0.765885        20.8408 
 103   0.0000       0.779885        21.2217 
 104   0.0000       0.801080        21.7985 
 105   0.0000       0.841243        22.8914 
 106   0.0000       0.854486        23.2517 
 107   0.0000       0.865784        23.5592 
 108   0.0000       0.869880        23.6706 
 109   0.0000       0.877196        23.8697 
 110   0.0000       0.911146        24.7935 
 111   0.0000       0.912844        24.8398 
 112   0.0000       0.924086        25.1457 
 113   0.0000       0.931485        25.3470 
 114   0.0000       0.936359        25.4796 
 115   0.0000       0.939056        25.5530 
 116   0.0000       0.948474        25.8093 
 117   0.0000       0.960748        26.1433 
 118   0.0000       0.977332        26.5945 
 119   0.0000       0.980996        26.6943 
 120   0.0000       0.997420        27.1412 
 121   0.0000       1.032480        28.0952 
 122   0.0000       1.037421        28.2297 
 123   0.0000       1.042727        28.3740 
 124   0.0000       1.069700        29.1080 
 125   0.0000       1.090412        29.6716 
 126   0.0000       1.144349        31.1393 
 127   0.0000       1.163469        31.6596 
 128   0.0000       1.170971        31.8637 
 129   0.0000       1.176593        32.0167 
 130   0.0000       1.247431        33.9443 
 131   0.0000       1.292564        35.1725 
 132   0.0000       1.355984        36.8982 
 133   0.0000       1.378233        37.5036 
 134   0.0000       1.416573        38.5469 
 135   0.0000       1.438599        39.1463 
 136   0.0000       1.461824        39.7783 
 137   0.0000       1.476330        40.1730 
 138   0.0000       1.483699        40.3735 
 139   0.0000       1.519579        41.3498 
 140   0.0000       1.529141        41.6100 
 141   0.0000       1.551212        42.2106 
 142   0.0000       1.565757        42.6064 
 143   0.0000       1.585710        43.1494 
 144   0.0000       1.604439        43.6590 
 145   0.0000       1.627154        44.2771 
 146   0.0000       1.635897        44.5150 
 147   0.0000       1.643413        44.7195 
 148   0.0000       1.646638        44.8073 
 149   0.0000       1.662442        45.2374 
 150   0.0000       1.672590        45.5135 
 151   0.0000       1.701786        46.3079 
 152   0.0000       1.704920        46.3932 
 153   0.0000       1.713181        46.6180 
 154   0.0000       1.731759        47.1235 
 155   0.0000       1.766857        48.0786 
 156   0.0000       1.798195        48.9314 
 157   0.0000       1.799538        48.9679 
 158   0.0000       1.865463        50.7618 
 159   0.0000       1.876439        51.0605 
 160   0.0000       1.887170        51.3525 
 161   0.0000       1.888425        51.3867 
 162   0.0000       1.904654        51.8283 
 163   0.0000       1.930266        52.5252 
 164   0.0000       1.942819        52.8668 
 165   0.0000       1.951287        53.0972 
 166   0.0000       1.960202        53.3398 
 167   0.0000       1.978130        53.8277 
 168   0.0000       1.986260        54.0489 
 169   0.0000       2.043684        55.6115 
 170   0.0000       2.053118        55.8682 
 171   0.0000       2.090564        56.8871 
 172   0.0000       2.113829        57.5202 
 173   0.0000       2.132265        58.0219 
 174   0.0000       2.164660        58.9034 
 175   0.0000       2.178963        59.2926 
 176   0.0000       2.196555        59.7713 
 177   0.0000       2.206525        60.0426 
 178   0.0000       2.213935        60.2442 
 179   0.0000       2.246281        61.1244 
 180   0.0000       2.256128        61.3924 
 181   0.0000       2.286732        62.2252 
 182   0.0000       2.319827        63.1257 
 183   0.0000       2.354282        64.0633 
 184   0.0000       2.362806        64.2952 
 185   0.0000       2.377162        64.6859 
 186   0.0000       2.417633        65.7871 
 187   0.0000       2.452416        66.7336 
 188   0.0000       2.467382        67.1409 
 189   0.0000       2.622183        71.3532 
 190   0.0000       2.624664        71.4207 
 191   0.0000       2.667109        72.5757 
 192   0.0000       2.709063        73.7173 
 193   0.0000       2.752070        74.8876 
 194   0.0000       2.764071        75.2142 
 195   0.0000       2.772935        75.4554 
 196   0.0000       2.849679        77.5437 
 197   0.0000       2.897590        78.8474 
 198   0.0000       2.940808        80.0235 
 199   0.0000       3.006074        81.7994 
 200   0.0000       3.051405        83.0330 
 201   0.0000       3.084458        83.9324 
 202   0.0000       3.128106        85.1201 
 203   0.0000       3.202303        87.1391 
 204   0.0000       3.275784        89.1386 
 205   0.0000       3.365379        91.5766 
 206   0.0000       3.510938        95.5375 
 207   0.0000       3.550024        96.6011 
 208   0.0000       3.741880       101.8217 
 209   0.0000       3.771798       102.6358 
 210   0.0000       3.833641       104.3187 
 211   0.0000       3.923023       106.7509 
 212   0.0000       4.000316       108.8541 
 213   0.0000       4.266375       116.0940 
 214   0.0000       4.717645       128.3736 
Total SCF time: 0 days 0 hours 0 min 16 sec 

Maximum memory used throughout the entire SCF-calculation: 231.6 MB

-------------------------   --------------------
FINAL SINGLE POINT ENERGY      -305.596605270875
-------------------------   --------------------


                            ***************************************
                            *     ORCA property calculations      *
                            ***************************************

                                    ---------------------
                                    Active property flags
                                    ---------------------
   (+) Dipole Moment
   (+) Polarizability


------------------------------------------------------------------------------
                       ORCA ELECTRIC PROPERTIES CALCULATION
------------------------------------------------------------------------------

Dipole Moment Calculation                       ... on
Quadrupole Moment Calculation                   ... off
Polarizability Calculation                      ... Analytic (CP-SCF)
GBWName                                         ... phenol_efield_y_-0.008.gbw
Electron density                                ... phenol_efield_y_-0.008.scfp
The origin for moment calculation is the CENTER OF MASS  = ( 0.892295,  6.685629  0.017111)

-------------
DIPOLE MOMENT
-------------
                                X             Y             Z
Electronic contribution:     -1.75649      -0.65509      -0.22355
Nuclear contribution   :      2.09690      -0.00184       0.79546
                        -----------------------------------------
Total Dipole Moment    :      0.34041      -0.65693       0.57192
                        -----------------------------------------
Magnitude (a.u.)       :      0.93516
Magnitude (Debye)      :      2.37700



--------------------
Rotational spectrum 
--------------------
 
Rotational constants in cm-1:     0.187876     0.084795     0.058746 
Rotational constants in MHz :  5632.368735  2542.097443  1761.161239 

 Dipole components along the rotational axes: 
x,y,z [a.u.] :     0.333479     0.657285     0.575586 
x,y,z [Debye]:     0.847636     1.670687     1.463024 

 
Transforming and storing MO dipole integrals   ... done

                ... starting polarizability calculation

The origin for moment calculation is the CENTER OF MASS  = ( 0.892295,  6.685629  0.017111)
Opening the Dipole integral file               ... (phenol_efield_y_-0.008.dmo.tmp) done
Reading Dipole-MO integrals                    ... done
Solving CP-SCF equations                       ... 

           ************************************************************
           *        Program running with 16 parallel MPI-processes    *
           *              working on a common directory               *
           ************************************************************

------------------------------------------------------------------------------
                           ORCA CP-SCF CALCULATION
------------------------------------------------------------------------------

Input orbitals are from        ... phenol_efield_y_-0.008.gbw
Input Perturbation             ... phenol_efield_y_-0.008.cpv.tmp
Wavefunction output            ... phenol_efield_y_-0.008.cpu.tmp
Perturbation mode              ... Real perturbation (singlet)
Solver                         ... POPLE
Max. number of iterations      ... 64
Convergence tolerance          ... 3.000e-05
Integral handling              ... Direct
Number of perturbations        ... 3
Number of operators            ... 1
Orbital ranges used for CP-SCF:
 Operator 0:  Orbitals   0... 24  to  25...214
Variables per perturbation     ... 4750
Memory available               ... 1992.1 MB
Memory needed per perturbation ...   1.4 MB
Perturbations treated per batch... 3
Number of batches              ... 1
     CP-SCF ITERATION   0:   2.0084e+00 (   2.2 sec   0/  3 done)
     CP-SCF ITERATION   1:   4.1914e-01 (   2.2 sec   0/  3 done)
     CP-SCF ITERATION   2:   9.0504e-02 (   2.2 sec   0/  3 done)
     CP-SCF ITERATION   3:   3.9685e-02 (   2.2 sec   0/  3 done)
     CP-SCF ITERATION   4:   1.1205e-02 (   2.2 sec   0/  3 done)
     CP-SCF ITERATION   5:   4.1256e-03 (   2.2 sec   0/  3 done)
     CP-SCF ITERATION   6:   2.0792e-03 (   2.2 sec   0/  3 done)
     CP-SCF ITERATION   7:   8.6688e-04 (   2.2 sec   0/  3 done)
     CP-SCF ITERATION   8:   3.1541e-04 (   2.2 sec   0/  3 done)
     CP-SCF ITERATION   9:   8.8852e-05 (   2.2 sec   1/  3 done)
     CP-SCF ITERATION  10:   2.5574e-05 (   1.8 sec   3/  3 done)
                    *** THE CP-SCF HAS CONVERGED ***
done
Reading CP-SCF coefficients                    ... done
Doing the polarizability tensor                ... done
Cleaning up                                    ... done

-------------------------
THE POLARIZABILITY TENSOR
-------------------------

The raw cartesian tensor (atomic units):
   88.21534     -0.02442     -1.43994  
   -0.02442     82.18737     -0.00856  
   -1.43994     -0.00856     48.00979  
diagonalized tensor: 
   47.95828     82.18727     88.26694  

    0.03575      0.00395     -0.99935  
    0.00028      0.99999      0.00396  
    0.99936     -0.00042      0.03574  

Isotropic polarizability :  72.80417


Timings for individual modules:

Sum of individual times         ...       48.044 sec (=   0.801 min)
GTO integral calculation        ...        2.896 sec (=   0.048 min)   6.0 %
SCF iterations                  ...       18.826 sec (=   0.314 min)  39.2 %
Solution of CP-SCF eqns.        ...       26.322 sec (=   0.439 min)  54.8 %
                             ****ORCA TERMINATED NORMALLY****
TOTAL RUN TIME: 0 days 0 hours 0 minutes 51 seconds 255 msec
