 Entering Gaussian System, Link 0=g16
 Initial command:
 /scicomp/CentOS/7.4.1708/Skylake/software/Gaussian/g16/l1.exe "/scratch/pmilev/Gaussian/wb97x/orca_check/g16_1689541/Gau-39135.inp" -scrdir="/scratch/pmilev/Gaussian/wb97x/orca_check/g16_1689541/"
 Entering Link 1 = /scicomp/CentOS/7.4.1708/Skylake/software/Gaussian/g16/l1.exe PID=     39137.
  
 Copyright (c) 1988-2017, Gaussian, Inc.  All Rights Reserved.
  
 This is part of the Gaussian(R) 16 program.  It is based on
 the Gaussian(R) 09 system (copyright 2009, Gaussian, Inc.),
 the Gaussian(R) 03 system (copyright 2003, Gaussian, Inc.),
 the Gaussian(R) 98 system (copyright 1998, Gaussian, Inc.),
 the Gaussian(R) 94 system (copyright 1995, Gaussian, Inc.),
 the Gaussian 92(TM) system (copyright 1992, Gaussian, Inc.),
 the Gaussian 90(TM) system (copyright 1990, Gaussian, Inc.),
 the Gaussian 88(TM) system (copyright 1988, Gaussian, Inc.),
 the Gaussian 86(TM) system (copyright 1986, Carnegie Mellon
 University), and the Gaussian 82(TM) system (copyright 1983,
 Carnegie Mellon University). Gaussian is a federally registered
 trademark of Gaussian, Inc.
  
 This software contains proprietary and confidential information,
 including trade secrets, belonging to Gaussian, Inc.
  
 This software is provided under written license and may be
 used, copied, transmitted, or stored only in accord with that
 written license.
  
 The following legend is applicable only to US Government
 contracts under FAR:
  
                    RESTRICTED RIGHTS LEGEND
  
 Use, reproduction and disclosure by the US Government is
 subject to restrictions as set forth in subparagraphs (a)
 and (c) of the Commercial Computer Software - Restricted
 Rights clause in FAR 52.227-19.
  
 Gaussian, Inc.
 340 Quinnipiac St., Bldg. 40, Wallingford CT 06492
  
  
 ---------------------------------------------------------------
 Warning -- This program may not be used in any manner that
 competes with the business of Gaussian, Inc. or will provide
 assistance to any competitor of Gaussian, Inc.  The licensee
 of this program is prohibited from giving any competitor of
 Gaussian, Inc. access to this program.  By using this program,
 the user acknowledges that Gaussian, Inc. is engaged in the
 business of creating and licensing software in the field of
 computational chemistry and represents and warrants to the
 licensee that it is not a competitor of Gaussian, Inc. and that
 it will not use this program in any manner prohibited above.
 ---------------------------------------------------------------
  

 Cite this work as:
 Gaussian 16, Revision B.01,
 M. J. Frisch, G. W. Trucks, H. B. Schlegel, G. E. Scuseria, 
 M. A. Robb, J. R. Cheeseman, G. Scalmani, V. Barone, 
 G. A. Petersson, H. Nakatsuji, X. Li, M. Caricato, A. V. Marenich, 
 J. Bloino, B. G. Janesko, R. Gomperts, B. Mennucci, H. P. Hratchian, 
 J. V. Ortiz, A. F. Izmaylov, J. L. Sonnenberg, D. Williams-Young, 
 F. Ding, F. Lipparini, F. Egidi, J. Goings, B. Peng, A. Petrone, 
 T. Henderson, D. Ranasinghe, V. G. Zakrzewski, J. Gao, N. Rega, 
 G. Zheng, W. Liang, M. Hada, M. Ehara, K. Toyota, R. Fukuda, 
 J. Hasegawa, M. Ishida, T. Nakajima, Y. Honda, O. Kitao, H. Nakai, 
 T. Vreven, K. Throssell, J. A. Montgomery, Jr., J. E. Peralta, 
 F. Ogliaro, M. J. Bearpark, J. J. Heyd, E. N. Brothers, K. N. Kudin, 
 V. N. Staroverov, T. A. Keith, R. Kobayashi, J. Normand, 
 K. Raghavachari, A. P. Rendell, J. C. Burant, S. S. Iyengar, 
 J. Tomasi, M. Cossi, J. M. Millam, M. Klene, C. Adamo, R. Cammi, 
 J. W. Ochterski, R. L. Martin, K. Morokuma, O. Farkas, 
 J. B. Foresman, and D. J. Fox, Gaussian, Inc., Wallingford CT, 2016.
 
 ******************************************
 Gaussian 16:  ES64L-G16RevB.01 20-Dec-2017
                20-Jun-2024 
 ******************************************
 %nproc=2
 Will use up to    2 processors via shared memory.
 %mem=40Gb
 %chk=hcl.chk
 -------------------------------------------
 #P hf/aug-cc-pvdz IOp(3/59=10) nosymm polar
 -------------------------------------------
 1/38=1,172=1/1;
 2/12=2,15=1,17=6,18=5,40=1/2;
 3/5=16,7=10,11=9,25=1,30=1,59=10/1,2,3;
 4//1;
 5/5=2,38=5,98=1/2;
 8/6=4,10=90,11=11/1;
 10/6=1,13=10,31=1/2;
 6/7=2,8=2,9=2,10=2,28=1/1;
 99/5=1,9=1/99;
 Leave Link    1 at Thu Jun 20 08:40:52 2024, MaxMem=  5368709120 cpu:               0.1 elap:               0.1
 (Enter /scicomp/CentOS/7.4.1708/Skylake/software/Gaussian/g16/l101.exe)
 ----------------------------------------------------------------------
 Performing amonia check orca calculation and saving the results F=Z+1.
 dF dF=0.00001au
 ----------------------------------------------------------------------
 Symbolic Z-matrix:
 Charge =  0 Multiplicity = 1
 Cl                   -5.59211   0.14474   0. 
 H                    -6.88211   0.14474   0. 
 
 ITRead=  0  0
 MicOpt= -1 -1
 NAtoms=      2 NQM=        2 NQMF=       0 NMMI=      0 NMMIF=      0
                NMic=       0 NMicF=      0.
                    Isotopes and Nuclear Properties:
 (Nuclear quadrupole moments (NQMom) in fm**2, nuclear magnetic moments (NMagM)
  in nuclear magnetons)

  Atom         1           2
 IAtWgt=          35           1
 AtmWgt=  34.9688527   1.0078250
 NucSpn=           3           1
 AtZEff=  -0.0000000  -0.0000000
 NQMom=   -8.1650000   0.0000000
 NMagM=    0.8218740   2.7928460
 AtZNuc=  17.0000000   1.0000000
 Leave Link  101 at Thu Jun 20 08:40:52 2024, MaxMem=  5368709120 cpu:               0.2 elap:               0.1
 (Enter /scicomp/CentOS/7.4.1708/Skylake/software/Gaussian/g16/l202.exe)
                          Input orientation:                          
 ---------------------------------------------------------------------
 Center     Atomic      Atomic             Coordinates (Angstroms)
 Number     Number       Type             X           Y           Z
 ---------------------------------------------------------------------
      1         17           0       -5.592106    0.144737    0.000000
      2          1           0       -6.882106    0.144737    0.000000
 ---------------------------------------------------------------------
 Symmetry turned off by external request.
 Stoichiometry    ClH
 Framework group  C*V[C*(HCl)]
 Deg. of freedom     1
 Full point group                 C*V     NOp   4
 Rotational constants (GHZ):           0.0000000         310.0218533         310.0218533
 Leave Link  202 at Thu Jun 20 08:40:52 2024, MaxMem=  5368709120 cpu:               0.0 elap:               0.0
 (Enter /scicomp/CentOS/7.4.1708/Skylake/software/Gaussian/g16/l301.exe)
 Standard basis: Aug-CC-pVDZ (5D, 7F)
 Ernie: Thresh=  0.10000D-02 Tol=  0.10000D-05 Strict=F.
 Ernie:  10 primitive shells out of 60 were deleted.
    36 basis functions,    92 primitive gaussians,    38 cartesian basis functions
     9 alpha electrons        9 beta electrons
       nuclear repulsion energy         6.9736531672 Hartrees.
 IExCor=    0 DFT=F Ex=HF Corr=None ExCW=0 ScaHFX=  1.000000
 ScaDFX=  1.000000  1.000000  1.000000  1.000000 ScalE2=  1.000000  1.000000
 IRadAn=      5 IRanWt=     -1 IRanGd=            0 ICorTp=0 IEmpDi=  4
 NAtoms=    2 NActive=    2 NUniq=    2 SFac= 1.00D+00 NAtFMM=   60 NAOKFM=F Big=F
 Integral buffers will be    131072 words long.
 Raffenetti 1 integral format.
 Two-electron integral symmetry is turned off.
 Leave Link  301 at Thu Jun 20 08:40:53 2024, MaxMem=  5368709120 cpu:               0.1 elap:               0.1
 (Enter /scicomp/CentOS/7.4.1708/Skylake/software/Gaussian/g16/l302.exe)
 NPDir=0 NMtPBC=     1 NCelOv=     1 NCel=       1 NClECP=     1 NCelD=      1
         NCelK=      1 NCelE2=     1 NClLst=     1 CellRange=     0.0.
 One-electron integrals computed using PRISM.
 NBasis=    36 RedAO= T EigKep=  2.36D-03  NBF=    36
 NBsUse=    36 1.00D-10 EigRej= -1.00D+00 NBFU=    36
 Leave Link  302 at Thu Jun 20 08:40:53 2024, MaxMem=  5368709120 cpu:               0.2 elap:               0.1
 (Enter /scicomp/CentOS/7.4.1708/Skylake/software/Gaussian/g16/l303.exe)
 DipDrv:  MaxL=1.
 Leave Link  303 at Thu Jun 20 08:40:53 2024, MaxMem=  5368709120 cpu:               0.1 elap:               0.1
 (Enter /scicomp/CentOS/7.4.1708/Skylake/software/Gaussian/g16/l401.exe)
 ExpMin= 2.97D-02 ExpMax= 1.28D+05 ExpMxC= 1.24D+03 IAcc=3 IRadAn=         5 AccDes= 0.00D+00
 Harris functional with IExCor=  205 and IRadAn=       5 diagonalized for initial guess.
 HarFok:  IExCor=  205 AccDes= 0.00D+00 IRadAn=         5 IDoV= 1 UseB2=F ITyADJ=14
 ICtDFT=  3500011 ScaDFX=  1.000000  1.000000  1.000000  1.000000
 FoFCou: FMM=F IPFlag=           0 FMFlag=      100000 FMFlg1=           0
         NFxFlg=           0 DoJE=T BraDBF=F KetDBF=T FulRan=T
         wScrn=  0.000000 ICntrl=       500 IOpCl=  0 I1Cent=   200000004 NGrid=           0
         NMat0=    1 NMatS0=      1 NMatT0=    0 NMatD0=    1 NMtDS0=    0 NMtDT0=    0
 Symmetry not used in FoFCou.
 Harris En= -459.645617604149    
 JPrj=0 DoOrth=F DoCkMO=F.
 Leave Link  401 at Thu Jun 20 08:40:53 2024, MaxMem=  5368709120 cpu:               0.3 elap:               0.1
 (Enter /scicomp/CentOS/7.4.1708/Skylake/software/Gaussian/g16/l502.exe)
 Keep R1 ints in memory in canonical form, NReq=1069306.
 FoFCou: FMM=F IPFlag=           0 FMFlag=           0 FMFlg1=           0
         NFxFlg=           0 DoJE=F BraDBF=F KetDBF=F FulRan=T
         wScrn=  0.000000 ICntrl=       600 IOpCl=  0 I1Cent=           0 NGrid=           0
         NMat0=    1 NMatS0=    666 NMatT0=    0 NMatD0=    1 NMtDS0=    0 NMtDT0=    0
 Symmetry not used in FoFCou.
 Two-electron integral symmetry not used.
 Closed shell SCF:
 Using DIIS extrapolation, IDIIS=  1040.
 NGot=  5368709120 LenX=  5368483487 LenY=  5368481602
 Requested convergence on RMS density matrix=1.00D-08 within 128 cycles.
 Requested convergence on MAX density matrix=1.00D-06.
 Requested convergence on             energy=1.00D-06.
 No special actions if energy rises.

 Cycle   1  Pass 1  IDiag  1:
 E= -460.081425286820    
 DIIS: error= 2.65D-02 at cycle   1 NSaved=   1.
 NSaved= 1 IEnMin= 1 EnMin= -460.081425286820     IErMin= 1 ErrMin= 2.65D-02
 ErrMax= 2.65D-02  0.00D+00 EMaxC= 1.00D-01 BMatC= 4.26D-02 BMatP= 4.26D-02
 IDIUse=3 WtCom= 7.35D-01 WtEn= 2.65D-01
 Coeff-Com:  0.100D+01
 Coeff-En:   0.100D+01
 Coeff:      0.100D+01
 Gap=     0.546 Goal=   None    Shift=    0.000
 GapD=    0.546 DampG=2.000 DampE=0.500 DampFc=1.0000 IDamp=-1.
 RMSDP=3.55D-03 MaxDP=3.82D-02              OVMax= 2.35D-02

 Cycle   2  Pass 1  IDiag  1:
 E= -460.092190035898     Delta-E=       -0.010764749078 Rises=F Damp=F
 DIIS: error= 1.67D-03 at cycle   2 NSaved=   2.
 NSaved= 2 IEnMin= 2 EnMin= -460.092190035898     IErMin= 2 ErrMin= 1.67D-03
 ErrMax= 1.67D-03  0.00D+00 EMaxC= 1.00D-01 BMatC= 1.94D-04 BMatP= 4.26D-02
 IDIUse=3 WtCom= 9.83D-01 WtEn= 1.67D-02
 Coeff-Com: -0.351D-01 0.104D+01
 Coeff-En:   0.000D+00 0.100D+01
 Coeff:     -0.345D-01 0.103D+01
 Gap=     0.515 Goal=   None    Shift=    0.000
 RMSDP=5.40D-04 MaxDP=4.35D-03 DE=-1.08D-02 OVMax= 7.22D-03

 Cycle   3  Pass 1  IDiag  1:
 E= -460.092477024504     Delta-E=       -0.000286988606 Rises=F Damp=F
 DIIS: error= 8.14D-04 at cycle   3 NSaved=   3.
 NSaved= 3 IEnMin= 3 EnMin= -460.092477024504     IErMin= 3 ErrMin= 8.14D-04
 ErrMax= 8.14D-04  0.00D+00 EMaxC= 1.00D-01 BMatC= 1.93D-05 BMatP= 1.94D-04
 IDIUse=3 WtCom= 9.92D-01 WtEn= 8.14D-03
 Coeff-Com: -0.317D-02 0.809D-01 0.922D+00
 Coeff-En:   0.000D+00 0.000D+00 0.100D+01
 Coeff:     -0.315D-02 0.802D-01 0.923D+00
 Gap=     0.511 Goal=   None    Shift=    0.000
 RMSDP=1.47D-04 MaxDP=2.13D-03 DE=-2.87D-04 OVMax= 2.91D-03

 Cycle   4  Pass 1  IDiag  1:
 E= -460.092508868913     Delta-E=       -0.000031844409 Rises=F Damp=F
 DIIS: error= 2.88D-04 at cycle   4 NSaved=   4.
 NSaved= 4 IEnMin= 4 EnMin= -460.092508868913     IErMin= 4 ErrMin= 2.88D-04
 ErrMax= 2.88D-04  0.00D+00 EMaxC= 1.00D-01 BMatC= 2.15D-06 BMatP= 1.93D-05
 IDIUse=3 WtCom= 9.97D-01 WtEn= 2.88D-03
 Coeff-Com:  0.257D-02-0.115D+00-0.584D-01 0.117D+01
 Coeff-En:   0.000D+00 0.000D+00 0.000D+00 0.100D+01
 Coeff:      0.256D-02-0.115D+00-0.583D-01 0.117D+01
 Gap=     0.512 Goal=   None    Shift=    0.000
 RMSDP=6.50D-05 MaxDP=4.87D-04 DE=-3.18D-05 OVMax= 1.12D-03

 Cycle   5  Pass 1  IDiag  1:
 E= -460.092515102273     Delta-E=       -0.000006233360 Rises=F Damp=F
 DIIS: error= 6.54D-05 at cycle   5 NSaved=   5.
 NSaved= 5 IEnMin= 5 EnMin= -460.092515102273     IErMin= 5 ErrMin= 6.54D-05
 ErrMax= 6.54D-05  0.00D+00 EMaxC= 1.00D-01 BMatC= 8.02D-08 BMatP= 2.15D-06
 IDIUse=1 WtCom= 1.00D+00 WtEn= 0.00D+00
 Coeff-Com: -0.407D-03 0.273D-01-0.193D-02-0.363D+00 0.134D+01
 Coeff:     -0.407D-03 0.273D-01-0.193D-02-0.363D+00 0.134D+01
 Gap=     0.512 Goal=   None    Shift=    0.000
 RMSDP=1.87D-05 MaxDP=1.65D-04 DE=-6.23D-06 OVMax= 3.70D-04

 Cycle   6  Pass 1  IDiag  1:
 E= -460.092515389823     Delta-E=       -0.000000287550 Rises=F Damp=F
 DIIS: error= 1.06D-05 at cycle   6 NSaved=   6.
 NSaved= 6 IEnMin= 6 EnMin= -460.092515389823     IErMin= 6 ErrMin= 1.06D-05
 ErrMax= 1.06D-05  0.00D+00 EMaxC= 1.00D-01 BMatC= 2.68D-09 BMatP= 8.02D-08
 IDIUse=1 WtCom= 1.00D+00 WtEn= 0.00D+00
 Coeff-Com: -0.327D-04 0.178D-02 0.541D-02-0.201D-01-0.128D+00 0.114D+01
 Coeff:     -0.327D-04 0.178D-02 0.541D-02-0.201D-01-0.128D+00 0.114D+01
 Gap=     0.512 Goal=   None    Shift=    0.000
 RMSDP=2.88D-06 MaxDP=2.83D-05 DE=-2.88D-07 OVMax= 5.00D-05

 Cycle   7  Pass 1  IDiag  1:
 E= -460.092515397265     Delta-E=       -0.000000007441 Rises=F Damp=F
 DIIS: error= 1.35D-06 at cycle   7 NSaved=   7.
 NSaved= 7 IEnMin= 7 EnMin= -460.092515397265     IErMin= 7 ErrMin= 1.35D-06
 ErrMax= 1.35D-06  0.00D+00 EMaxC= 1.00D-01 BMatC= 6.33D-11 BMatP= 2.68D-09
 IDIUse=1 WtCom= 1.00D+00 WtEn= 0.00D+00
 Coeff-Com:  0.840D-05-0.882D-03 0.640D-03 0.122D-01-0.617D-01 0.781D-01
 Coeff-Com:  0.972D+00
 Coeff:      0.840D-05-0.882D-03 0.640D-03 0.122D-01-0.617D-01 0.781D-01
 Coeff:      0.972D+00
 Gap=     0.512 Goal=   None    Shift=    0.000
 RMSDP=3.82D-07 MaxDP=3.80D-06 DE=-7.44D-09 OVMax= 6.07D-06

 Cycle   8  Pass 1  IDiag  1:
 E= -460.092515397371     Delta-E=       -0.000000000106 Rises=F Damp=F
 DIIS: error= 1.34D-07 at cycle   8 NSaved=   8.
 NSaved= 8 IEnMin= 8 EnMin= -460.092515397371     IErMin= 8 ErrMin= 1.34D-07
 ErrMax= 1.34D-07  0.00D+00 EMaxC= 1.00D-01 BMatC= 5.91D-13 BMatP= 6.33D-11
 IDIUse=1 WtCom= 1.00D+00 WtEn= 0.00D+00
 Coeff-Com: -0.891D-06 0.102D-03-0.232D-03-0.131D-02 0.106D-01-0.262D-01
 Coeff-Com: -0.130D+00 0.115D+01
 Coeff:     -0.891D-06 0.102D-03-0.232D-03-0.131D-02 0.106D-01-0.262D-01
 Coeff:     -0.130D+00 0.115D+01
 Gap=     0.512 Goal=   None    Shift=    0.000
 RMSDP=5.00D-08 MaxDP=6.16D-07 DE=-1.06D-10 OVMax= 5.27D-07

 Cycle   9  Pass 1  IDiag  1:
 E= -460.092515397372     Delta-E=       -0.000000000001 Rises=F Damp=F
 DIIS: error= 2.17D-08 at cycle   9 NSaved=   9.
 NSaved= 9 IEnMin= 9 EnMin= -460.092515397372     IErMin= 9 ErrMin= 2.17D-08
 ErrMax= 2.17D-08  0.00D+00 EMaxC= 1.00D-01 BMatC= 1.49D-14 BMatP= 5.91D-13
 IDIUse=1 WtCom= 1.00D+00 WtEn= 0.00D+00
 Coeff-Com:  0.146D-06-0.212D-04 0.604D-04 0.288D-03-0.265D-02 0.707D-02
 Coeff-Com:  0.304D-01-0.374D+00 0.134D+01
 Coeff:      0.146D-06-0.212D-04 0.604D-04 0.288D-03-0.265D-02 0.707D-02
 Coeff:      0.304D-01-0.374D+00 0.134D+01
 Gap=     0.512 Goal=   None    Shift=    0.000
 RMSDP=8.35D-09 MaxDP=9.42D-08 DE=-1.25D-12 OVMax= 1.23D-07

 SCF Done:  E(RHF) =  -460.092515397     A.U. after    9 cycles
            NFock=  9  Conv=0.83D-08     -V/T= 2.0001
 KE= 4.600479433454D+02 PE=-1.109678370793D+03 EE= 1.825642588829D+02
 Leave Link  502 at Thu Jun 20 08:40:53 2024, MaxMem=  5368709120 cpu:               0.3 elap:               0.2
 (Enter /scicomp/CentOS/7.4.1708/Skylake/software/Gaussian/g16/l801.exe)
 Range of M.O.s used for correlation:     1    36
 NBasis=    36 NAE=     9 NBE=     9 NFC=     0 NFV=     0
 NROrb=     36 NOA=     9 NOB=     9 NVA=    27 NVB=    27
 Leave Link  801 at Thu Jun 20 08:40:53 2024, MaxMem=  5368709120 cpu:               0.1 elap:               0.0
 (Enter /scicomp/CentOS/7.4.1708/Skylake/software/Gaussian/g16/l1002.exe)
 Minotr:  Closed shell wavefunction.
          Direct CPHF calculation.
          Differentiating once with respect to electric field.
                with respect to dipole field.
          Electric field/nuclear overlap derivatives assumed to be zero.
          Requested convergence is 1.0D-08 RMS, and 1.0D-07 maximum.
          Secondary convergence is 1.0D-12 RMS, and 1.0D-12 maximum.
          NewPWx=F KeepS1=T KeepF1=T KeepIn=T MapXYZ=F SortEE=F KeepMc=T.
 Keep R1 ints in memory in canonical form, NReq=1069740.
 FoFCou: FMM=F IPFlag=           0 FMFlag=           0 FMFlg1=           0
         NFxFlg=           0 DoJE=F BraDBF=F KetDBF=F FulRan=T
         wScrn=  0.000000 ICntrl=       600 IOpCl=  0 I1Cent=           0 NGrid=           0
         NMat0=    1 NMatS0=    666 NMatT0=    0 NMatD0=    1 NMtDS0=    0 NMtDT0=    0
 Symmetry not used in FoFCou.
 Two-electron integral symmetry not used.
          MDV=    5368709120 using IRadAn=       1.
          Solving linear equations simultaneously, MaxMat=       0.
          There are     3 degrees of freedom in the 1st order CPHF.  IDoFFX=0 NUNeed=     3.
      3 vectors produced by pass  0 Test12= 8.10D-15 3.33D-08 XBig12= 5.26D+00 1.38D+00.
 AX will form     3 AO Fock derivatives at one time.
      3 vectors produced by pass  1 Test12= 8.10D-15 3.33D-08 XBig12= 2.65D-01 1.93D-01.
      3 vectors produced by pass  2 Test12= 8.10D-15 3.33D-08 XBig12= 4.59D-03 2.45D-02.
      3 vectors produced by pass  3 Test12= 8.10D-15 3.33D-08 XBig12= 2.61D-04 5.81D-03.
      3 vectors produced by pass  4 Test12= 8.10D-15 3.33D-08 XBig12= 7.69D-06 1.10D-03.
      3 vectors produced by pass  5 Test12= 8.10D-15 3.33D-08 XBig12= 1.09D-07 1.67D-04.
      3 vectors produced by pass  6 Test12= 8.10D-15 3.33D-08 XBig12= 8.62D-10 9.87D-06.
      3 vectors produced by pass  7 Test12= 8.10D-15 3.33D-08 XBig12= 7.96D-12 1.03D-06.
      1 vectors produced by pass  8 Test12= 8.10D-15 3.33D-08 XBig12= 5.70D-14 7.04D-08.
 InvSVY:  IOpt=1 It=  1 EMax= 2.22D-16
 Solved reduced A of dimension    25 with     3 vectors.
 FullF1:  Do perturbations      1 to       3.
 SCF Polarizability for W=    0.000000:
                1             2             3 
      1  0.173275D+02
      2  0.000000D+00  0.147501D+02
      3  0.000000D+00  0.000000D+00  0.147501D+02
 Isotropic polarizability for W=    0.000000       15.61 Bohr**3.
 SCF Static Hyperpolarizability:
 K=  1 block:
                1 
      1 -0.248396D+02
 K=  2 block:
                1             2 
      1  0.000000D+00
      2  0.158956D+01  0.000000D+00
 K=  3 block:
                1             2             3 
      1  0.000000D+00
      2  0.000000D+00  0.000000D+00
      3  0.158956D+01  0.000000D+00  0.000000D+00
 End of Minotr F.D. properties file   721 does not exist.
 End of Minotr F.D. properties file   722 does not exist.
 End of Minotr F.D. properties file   788 does not exist.
 Leave Link 1002 at Thu Jun 20 08:40:54 2024, MaxMem=  5368709120 cpu:               0.3 elap:               0.2
 (Enter /scicomp/CentOS/7.4.1708/Skylake/software/Gaussian/g16/l601.exe)
 Copying SCF densities to generalized density rwf, IOpCl= 0 IROHF=0.

 **********************************************************************

            Population analysis using the SCF Density.

 **********************************************************************

 Alpha  occ. eigenvalues -- -104.85157 -10.57706  -8.04495  -8.04146  -8.04146
 Alpha  occ. eigenvalues --   -1.11693  -0.62344  -0.47705  -0.47705
 Alpha virt. eigenvalues --    0.03491   0.12609   0.13824   0.13824   0.17853
 Alpha virt. eigenvalues --    0.21454   0.31887   0.31887   0.47154   0.47154
 Alpha virt. eigenvalues --    0.49119   0.57532   0.60754   0.60754   0.89205
 Alpha virt. eigenvalues --    0.92339   0.92339   1.03167   1.38607   1.38607
 Alpha virt. eigenvalues --    1.38693   1.38693   1.44795   1.78068   1.85418
 Alpha virt. eigenvalues --    1.85418   2.41331
          Condensed to atoms (all electrons):
               1          2
     1  Cl  16.811275   0.328006
     2  H    0.328006   0.532713
 Mulliken charges:
               1
     1  Cl  -0.139281
     2  H    0.139281
 Sum of Mulliken charges =  -0.00000
 Mulliken charges with hydrogens summed into heavy atoms:
               1
     1  Cl  -0.000000
 Electronic spatial extent (au):  <R**2>=           2087.0710
 Charge=             -0.0000 electrons
 Dipole moment (field-independent basis, Debye):
    X=             -1.2579    Y=             -0.0000    Z=              0.0000  Tot=              1.2579
 Quadrupole moment (field-independent basis, Debye-Ang):
   XX=              3.9348   YY=            -14.1699   ZZ=            -14.1699
   XY=             -0.1821   XZ=             -0.0000   YZ=             -0.0000
 Traceless Quadrupole moment (field-independent basis, Debye-Ang):
   XX=             12.0698   YY=             -6.0349   ZZ=             -6.0349
   XY=             -0.1821   XZ=             -0.0000   YZ=             -0.0000
 Octapole moment (field-independent basis, Debye-Ang**2):
  XXX=             51.4330  YYY=             -6.1527  ZZZ=              0.0000  XYY=             80.0972
  XXY=              0.5695  XXZ=              0.0000  XZZ=             80.1235  YZZ=             -2.0509
  YYZ=              0.0000  XYZ=              0.0000
 Hexadecapole moment (field-independent basis, Debye-Ang**3):
 XXXX=          -1022.0870 YYYY=            -18.4215 ZZZZ=            -16.6405 XXXY=              7.4443
 XXXZ=             -0.0000 YYYX=             34.7867 YYYZ=             -0.0000 ZZZX=             -0.0000
 ZZZY=              0.0000 XXYY=           -458.8378 XXZZ=           -458.9202 YYZZ=             -5.8437
 XXYZ=             -0.0000 YYXZ=             -0.0000 ZZXY=             11.5968
 N-N= 6.973653167163D+00 E-N=-1.109678370913D+03  KE= 4.600479433454D+02
  Exact polarizability:  17.328  -0.000  14.750   0.000  -0.000  14.750
 Approx polarizability:  17.356  -0.000  13.734   0.000  -0.000  13.734
 No NMR shielding tensors so no spin-rotation constants.
 Leave Link  601 at Thu Jun 20 08:40:54 2024, MaxMem=  5368709120 cpu:               0.2 elap:               0.1
 (Enter /scicomp/CentOS/7.4.1708/Skylake/software/Gaussian/g16/l9999.exe)

 ----------------------------------------------------------------------

 Electric dipole moment (input orientation):
 (Debye = 10**-18 statcoulomb cm , SI units = C m)
                  (au)            (Debye)         (10**-30 SI)
   Tot        0.494906D+00      0.125793D+01      0.419599D+01
   x         -0.494906D+00     -0.125793D+01     -0.419599D+01
   y          0.000000D+00      0.000000D+00      0.000000D+00
   z          0.000000D+00      0.000000D+00      0.000000D+00

 Dipole polarizability, Alpha (input orientation).
 (esu units = cm**3 , SI units = C**2 m**2 J**-1)
 Alpha(0;0):
               (au)            (10**-24 esu)      (10**-40 SI)
   iso        0.156092D+02      0.231305D+01      0.257362D+01
   aniso      0.257742D+01      0.381934D+00      0.424959D+00
   xx         0.173275D+02      0.256767D+01      0.285692D+01
   yx         0.000000D+00      0.000000D+00      0.000000D+00
   yy         0.147501D+02      0.218574D+01      0.243196D+01
   zx         0.000000D+00      0.000000D+00      0.000000D+00
   zy         0.000000D+00      0.000000D+00      0.000000D+00
   zz         0.147501D+02      0.218574D+01      0.243196D+01

 First dipole hyperpolarizability, Beta (input orientation).
 ||, _|_  parallel and perpendicular components, (z) with respect to z axis,
 vector components x,y,z.  Values do not include the 1/n! factor of 1/2.
 (esu units = statvolt**-1 cm**4 , SI units = C**3 m**3 J**-2)
 Beta(0;0,0):
               (au)            (10**-30 esu)      (10**-50 SI)
   || (z)     0.000000D+00      0.000000D+00      0.000000D+00
   _|_(z)     0.000000D+00      0.000000D+00      0.000000D+00
   x         -0.649815D+02     -0.561389D+00     -0.208354D+00
   y          0.000000D+00      0.000000D+00      0.000000D+00
   z          0.000000D+00      0.000000D+00      0.000000D+00
   ||         0.129963D+02      0.112278D+00      0.416708D-01
   xxx       -0.248396D+02     -0.214595D+00     -0.796448D-01
   xxy        0.000000D+00      0.000000D+00      0.000000D+00
   yxy        0.158956D+01      0.137326D-01      0.509671D-02
   yyy        0.000000D+00      0.000000D+00      0.000000D+00
   xxz        0.000000D+00      0.000000D+00      0.000000D+00
   yxz        0.000000D+00      0.000000D+00      0.000000D+00
   yyz        0.000000D+00      0.000000D+00      0.000000D+00
   zxz        0.158956D+01      0.137326D-01      0.509671D-02
   zyz        0.000000D+00      0.000000D+00      0.000000D+00
   zzz        0.000000D+00      0.000000D+00      0.000000D+00

 ----------------------------------------------------------------------

 Dipole orientation:
    17         -0.00000000          0.27351299         10.56754801
     1         -0.00000000          0.27351299         13.00529471

 Electric dipole moment (dipole orientation):
 (Debye = 10**-18 statcoulomb cm , SI units = C m)
                  (au)            (Debye)         (10**-30 SI)
   Tot        0.494906D+00      0.125793D+01      0.419599D+01
   x          0.000000D+00      0.000000D+00      0.000000D+00
   y          0.000000D+00      0.000000D+00      0.000000D+00
   z          0.494906D+00      0.125793D+01      0.419599D+01

 Dipole polarizability, Alpha (dipole orientation).
 (esu units = cm**3 , SI units = C**2 m**2 J**-1)
 Alpha(0;0):
               (au)            (10**-24 esu)      (10**-40 SI)
   iso        0.156092D+02      0.231305D+01      0.257362D+01
   aniso      0.257742D+01      0.381934D+00      0.424959D+00
   xx         0.147501D+02      0.218574D+01      0.243196D+01
   yx         0.000000D+00      0.000000D+00      0.000000D+00
   yy         0.147501D+02      0.218574D+01      0.243196D+01
   zx         0.000000D+00      0.000000D+00      0.000000D+00
   zy         0.000000D+00      0.000000D+00      0.000000D+00
   zz         0.173275D+02      0.256767D+01      0.285692D+01

 First dipole hyperpolarizability, Beta (dipole orientation).
 ||, _|_  parallel and perpendicular components, (z) with respect to z axis,
 vector components x,y,z.  Values do not include the 1/n! factor of 1/2.
 (esu units = statvolt**-1 cm**4 , SI units = C**3 m**3 J**-2)
 Beta(0;0,0):
               (au)            (10**-30 esu)      (10**-50 SI)
   || (z)     0.129963D+02      0.112278D+00      0.416708D-01
   _|_(z)     0.433210D+01      0.374259D-01      0.138903D-01
   x          0.000000D+00      0.000000D+00      0.000000D+00
   y          0.000000D+00      0.000000D+00      0.000000D+00
   z          0.649815D+02      0.561389D+00      0.208354D+00
   ||         0.129963D+02      0.112278D+00      0.416708D-01
   xxx        0.000000D+00      0.000000D+00      0.000000D+00
   xxy        0.000000D+00      0.000000D+00      0.000000D+00
   yxy        0.000000D+00      0.000000D+00      0.000000D+00
   yyy        0.000000D+00      0.000000D+00      0.000000D+00
   xxz       -0.158956D+01     -0.137326D-01     -0.509671D-02
   yxz        0.000000D+00      0.000000D+00      0.000000D+00
   yyz       -0.158956D+01     -0.137326D-01     -0.509671D-02
   zxz        0.000000D+00      0.000000D+00      0.000000D+00
   zyz        0.000000D+00      0.000000D+00      0.000000D+00
   zzz        0.248396D+02      0.214595D+00      0.796448D-01

 ----------------------------------------------------------------------

 Test job not archived.
 1\1\GINC-ATLAS-303\SP\RHF\Aug-CC-pVDZ\Cl1H1\PMILEV\20-Jun-2024\0\\#P h
 f/aug-cc-pvdz IOp(3/59=10) nosymm polar\\Performing amonia check orca 
 calculation and saving the results F=Z+1.dF dF=0.00001au\\0,1\Cl,0,-5.
 59210558,0.14473684,0.\H,0,-6.88210558,0.14473684,0.\\Version=ES64L-G1
 6RevB.01\HF=-460.0925154\RMSD=8.347e-09\Dipole=-0.4949058,0.,0.\Polar=
 17.3275272,0.,14.750111,0.,0.,14.750111\HyperPolar=-24.8396078,0.,1.58
 95606,0.,0.,0.,0.,1.5895606,0.,0.\Quadrupole=8.9736189,-4.4868094,-4.4
 868094,-0.1353632,0.,0.\PG=C*V [C*(H1Cl1)]\\@


 In the beginning there was nothing, which exploded.
 Job cpu time:       0 days  0 hours  0 minutes  2.0 seconds.
 Elapsed time:       0 days  0 hours  0 minutes  1.2 seconds.
 File lengths (MBytes):  RWF=     10 Int=      0 D2E=      0 Chk=      4 Scr=      1
 Normal termination of Gaussian 16 at Thu Jun 20 08:40:54 2024.
